 Entering Gaussian System, Link 0=/share/apps/g16/g16
 Initial command:
 /share/apps//g16/l1.exe "/state/partition1/gauss_tmp/Gau-23035.inp" -scrdir="/state/partition1/gauss_tmp/"
 Entering Link 1 = /share/apps//g16/l1.exe PID=     23063.
  
 Copyright (c) 1988-2017, Gaussian, Inc.  All Rights Reserved.
  
 This is part of the Gaussian(R) 16 program.  It is based on
 the Gaussian(R) 09 system (copyright 2009, Gaussian, Inc.),
 the Gaussian(R) 03 system (copyright 2003, Gaussian, Inc.),
 the Gaussian(R) 98 system (copyright 1998, Gaussian, Inc.),
 the Gaussian(R) 94 system (copyright 1995, Gaussian, Inc.),
 the Gaussian 92(TM) system (copyright 1992, Gaussian, Inc.),
 the Gaussian 90(TM) system (copyright 1990, Gaussian, Inc.),
 the Gaussian 88(TM) system (copyright 1988, Gaussian, Inc.),
 the Gaussian 86(TM) system (copyright 1986, Carnegie Mellon
 University), and the Gaussian 82(TM) system (copyright 1983,
 Carnegie Mellon University). Gaussian is a federally registered
 trademark of Gaussian, Inc.
  
 This software contains proprietary and confidential information,
 including trade secrets, belonging to Gaussian, Inc.
  
 This software is provided under written license and may be
 used, copied, transmitted, or stored only in accord with that
 written license.
  
 The following legend is applicable only to US Government
 contracts under FAR:
  
                    RESTRICTED RIGHTS LEGEND
  
 Use, reproduction and disclosure by the US Government is
 subject to restrictions as set forth in subparagraphs (a)
 and (c) of the Commercial Computer Software - Restricted
 Rights clause in FAR 52.227-19.
  
 Gaussian, Inc.
 340 Quinnipiac St., Bldg. 40, Wallingford CT 06492
  
  
 ---------------------------------------------------------------
 Warning -- This program may not be used in any manner that
 competes with the business of Gaussian, Inc. or will provide
 assistance to any competitor of Gaussian, Inc.  The licensee
 of this program is prohibited from giving any competitor of
 Gaussian, Inc. access to this program.  By using this program,
 the user acknowledges that Gaussian, Inc. is engaged in the
 business of creating and licensing software in the field of
 computational chemistry and represents and warrants to the
 licensee that it is not a competitor of Gaussian, Inc. and that
 it will not use this program in any manner prohibited above.
 ---------------------------------------------------------------
  

 Cite this work as:
 Gaussian 16, Revision B.01,
 M. J. Frisch, G. W. Trucks, H. B. Schlegel, G. E. Scuseria, 
 M. A. Robb, J. R. Cheeseman, G. Scalmani, V. Barone, 
 G. A. Petersson, H. Nakatsuji, X. Li, M. Caricato, A. V. Marenich, 
 J. Bloino, B. G. Janesko, R. Gomperts, B. Mennucci, H. P. Hratchian, 
 J. V. Ortiz, A. F. Izmaylov, J. L. Sonnenberg, D. Williams-Young, 
 F. Ding, F. Lipparini, F. Egidi, J. Goings, B. Peng, A. Petrone, 
 T. Henderson, D. Ranasinghe, V. G. Zakrzewski, J. Gao, N. Rega, 
 G. Zheng, W. Liang, M. Hada, M. Ehara, K. Toyota, R. Fukuda, 
 J. Hasegawa, M. Ishida, T. Nakajima, Y. Honda, O. Kitao, H. Nakai, 
 T. Vreven, K. Throssell, J. A. Montgomery, Jr., J. E. Peralta, 
 F. Ogliaro, M. J. Bearpark, J. J. Heyd, E. N. Brothers, K. N. Kudin, 
 V. N. Staroverov, T. A. Keith, R. Kobayashi, J. Normand, 
 K. Raghavachari, A. P. Rendell, J. C. Burant, S. S. Iyengar, 
 J. Tomasi, M. Cossi, J. M. Millam, M. Klene, C. Adamo, R. Cammi, 
 J. W. Ochterski, R. L. Martin, K. Morokuma, O. Farkas, 
 J. B. Foresman, and D. J. Fox, Gaussian, Inc., Wallingford CT, 2016.
 
 ******************************************
 Gaussian 16:  EM64L-G16RevB.01 20-Dec-2017
                 2-May-2019 
 ******************************************
 %NProcShared=8
 Will use up to    8 processors via shared memory.
 %LindaWorkers=compute-0-11
 %chk=cat-ra4PH-sd.chk
 %mem=8GB
 %nproc=8
 Will use up to    8 processors via shared memory.
 SetLPE:  input flags=" -vv -opt "Tsnet.Node.lindarsharg: ssh" "
 SetLPE:    new flags=" -vv -opt "Tsnet.Node.lindarsharg: ssh" -opt 'Tsnet.Node.lindarsharg: ssh'  -nodelist 'compute-0-11.local' -env GAUSS_MDEF=1073741824 -env GAUSS_EXEDIR="/share/apps//g16/bsd:/share/apps//g16""
 Will use up to    1 processors via Linda.
 ------------------------------
 # wB97XD/cc-PVTZ Pop=Hirshfeld
 ------------------------------
 1/38=1,172=1/1;
 2/12=2,17=6,18=5,40=1/2;
 3/5=16,6=1,11=2,25=1,30=1,74=-58/1,2,3;
 4//1;
 5/5=2,38=5/2;
 6/7=2,8=2,9=2,10=2,28=1,79=1/1;
 99/5=1,9=1/99;
 ------------
 cat-ra4PH-sd
 ------------
 Symbolic Z-matrix:
 Charge =  0 Multiplicity = 2
 C                     1.70299  -0.22803  -0.41379 
 C                     2.97395  -0.33119   0.12444 
 C                     3.84357   0.76013   0.18417 
 C                     3.3742    1.97365  -0.29981 
 C                     2.10291   2.11028  -0.84893 
 C                     1.27686   1.00118  -0.90486 
 H                     1.03544  -1.07974  -0.4604 
 H                     1.78734   3.07969  -1.21418 
 O                     0.0242    1.05314  -1.42511 
 H                    -0.1599    1.94195  -1.73429 
 O                     3.45147  -1.50431   0.61826 
 H                     2.79613  -2.19432   0.50127 
 O                     4.13815   3.09972  -0.29192 
 O                     7.31322   1.84466   1.05408 
 H                     7.14188   1.61302   1.96955 
 C                     6.08537   4.33502   0.23293 
 C                     6.16712   4.79415  -1.07242 
 C                     6.80457   4.9777    1.27305 
 C                     6.96454   5.88637  -1.351 
 H                     5.60842   4.31635  -1.86564 
 C                     7.5984    6.05476   1.02812 
 H                     6.71355   4.5937    2.28193 
 C                     7.72516   6.571    -0.30695 
 H                     8.15074   6.55268   1.81421 
 O                     7.08709   6.37831  -2.57598 
 H                     7.70017   7.13163  -2.48829 
 C                     5.28255   3.10615   0.54964 
 H                     4.95595   3.1447    1.59863 
 C                     5.24077   0.61608   0.71842 
 H                     5.21524   0.5247    1.81273 
 H                     5.70056  -0.29944   0.34466 
 C                     6.09776   1.81376   0.3432 
 H                     6.36687   1.76959  -0.71489 
 O                     8.42022   7.54865  -0.63784 
 
                          Input orientation:                          
 ---------------------------------------------------------------------
 Center     Atomic      Atomic             Coordinates (Angstroms)
 Number     Number       Type             X           Y           Z
 ---------------------------------------------------------------------
      1          6           0        1.702991   -0.228030   -0.413793
      2          6           0        2.973953   -0.331190    0.124444
      3          6           0        3.843574    0.760128    0.184168
      4          6           0        3.374201    1.973647   -0.299806
      5          6           0        2.102909    2.110275   -0.848928
      6          6           0        1.276858    1.001177   -0.904861
      7          1           0        1.035437   -1.079744   -0.460397
      8          1           0        1.787344    3.079686   -1.214184
      9          8           0        0.024205    1.053137   -1.425106
     10          1           0       -0.159900    1.941949   -1.734295
     11          8           0        3.451468   -1.504306    0.618265
     12          1           0        2.796133   -2.194319    0.501271
     13          8           0        4.138153    3.099716   -0.291924
     14          8           0        7.313216    1.844659    1.054082
     15          1           0        7.141883    1.613017    1.969546
     16          6           0        6.085372    4.335015    0.232925
     17          6           0        6.167116    4.794150   -1.072420
     18          6           0        6.804565    4.977699    1.273050
     19          6           0        6.964535    5.886375   -1.350996
     20          1           0        5.608425    4.316353   -1.865638
     21          6           0        7.598402    6.054761    1.028119
     22          1           0        6.713549    4.593698    2.281933
     23          6           0        7.725161    6.571000   -0.306945
     24          1           0        8.150737    6.552683    1.814206
     25          8           0        7.087088    6.378314   -2.575976
     26          1           0        7.700168    7.131625   -2.488294
     27          6           0        5.282545    3.106146    0.549638
     28          1           0        4.955951    3.144700    1.598634
     29          6           0        5.240772    0.616081    0.718420
     30          1           0        5.215237    0.524703    1.812725
     31          1           0        5.700564   -0.299444    0.344661
     32          6           0        6.097762    1.813761    0.343204
     33          1           0        6.366868    1.769589   -0.714888
     34          8           0        8.420223    7.548649   -0.637839
 ---------------------------------------------------------------------
                    Distance matrix (angstroms):
                    1          2          3          4          5
     1  C    0.000000
     2  C    1.384083   0.000000
     3  C    2.432305   1.396703   0.000000
     4  C    2.766463   2.377490   1.388226   0.000000
     5  C    2.411835   2.768921   2.433126   1.391541   0.000000
     6  C    1.390571   2.390565   2.798593   2.389694   1.384047
     7  H    1.083151   2.158753   3.418511   3.849519   3.386247
     8  H    3.404221   3.851498   3.400562   2.139515   1.082936
     9  O    2.341466   3.608113   4.154900   3.651864   2.402193
    10  H    3.150062   4.294543   4.594018   3.814266   2.435674
    11  O    2.398165   1.359442   2.338770   3.597913   4.127525
    12  H    2.428703   1.909155   3.150626   4.283437   4.564333
    13  O    4.125380   3.646894   2.405643   1.360778   2.330551
    14  O    6.158354   4.942443   3.737831   4.167193   5.553315
    15  H    6.217018   4.955400   3.846276   4.413099   5.795026
    16  C    6.359630   5.609471   4.219936   3.634599   4.688272
    17  C    6.751629   6.156125   4.821950   4.043828   4.875542
    18  C    7.481384   6.646592   5.266977   4.823443   5.901736
    19  C    8.120846   7.533908   6.194800   5.413404   6.176278
    20  H    6.165362   5.700923   4.468014   3.596090   4.264871
    21  C    8.735470   7.936153   6.545543   6.021856   7.020165
    22  H    7.457994   6.549339   5.228158   4.968026   6.101449
    23  C    9.083212   8.390488   7.005294   6.329815   7.197328
    24  H    9.618497   8.777363   7.400161   6.946360   7.962632
    25  O    8.792457   8.320311   7.050021   6.194156   6.785344
    26  H    9.717726   9.211792   7.912734   7.078716   7.696154
    27  C    4.985794   4.162411   2.776331   2.376108   3.613563
    28  H    5.099698   4.264195   2.987354   2.734479   3.898775
    29  C    3.809242   2.527567   1.502777   2.522668   3.812529
    30  H    4.226094   2.933633   2.142215   3.154622   4.391472
    31  H    4.069514   2.735673   2.144029   3.315757   4.491606
    32  C    4.904688   3.795636   2.493352   2.803000   4.179468
    33  H    5.082606   4.077942   2.862574   3.028199   4.279648
    34  O   10.278528   9.609099   8.228331   7.527101   8.338401
                    6          7          8          9         10
     6  C    0.000000
     7  H    2.141510   0.000000
     8  H    2.162516   4.293531   0.000000
     9  O    1.357385   2.549987   2.694447   0.000000
    10  H    1.907166   3.490311   2.314458   0.958894   0.000000
    11  O    3.650519   2.679733   5.209621   4.739410   5.518440
    12  H    3.807440   2.295024   5.636982   4.684068   5.553791
    13  O    3.600912   5.207986   2.525325   4.732564   4.679115
    14  O    6.402074   7.089167   6.099638   7.739675   7.976965
    15  H    6.560114   7.102413   6.399871   7.905598   8.194063
    16  C    5.960776   7.436542   4.705637   7.089255   6.971380
    17  C    6.191070   7.823767   4.705517   7.201036   6.971675
    18  C    7.149236   8.542850   5.912808   8.285863   8.170904
    19  C    7.510917   9.190983   5.890631   8.457770   8.152483
    20  H    5.538589   7.211434   4.068710   6.482759   6.239280
    21  C    8.320880   9.807616   6.902709   9.402288   9.205292
    22  H    7.253928   8.482291   6.227564   8.427635   8.390837
    23  C    8.541724  10.164144   6.947663   9.539487   9.254167
    24  H    9.244608  10.679666   7.856566  10.333377  10.144822
    25  O    8.091044   9.834672   6.389265   8.919996   8.538652
    26  H    9.019344  10.768360   7.280320   9.848797   9.448911
    27  C    4.753104   6.048121   3.915125   5.980352   6.015971
    28  H    4.939424   6.120128   4.237481   6.151404   6.223099
    29  C    4.300693   4.685112   4.661595   5.656704   6.077910
    30  H    4.808652   5.021162   5.238374   6.140815   6.594091
    31  H    4.777248   4.797957   5.400167   6.097754   6.609912
    32  C    5.045699   5.886024   4.754758   6.371308   6.594753
    33  H    5.151189   6.050423   4.789331   6.422390   6.608146
    34  O    9.693728  11.358508   8.018659  10.644463  10.308046
                   11         12         13         14         15
    11  O    0.000000
    12  H    0.958785   0.000000
    13  O    4.743100   5.518785   0.000000
    14  O    5.130166   6.084651   3.669868   0.000000
    15  H    5.016257   5.961308   4.043132   0.959733   0.000000
    16  C    6.417446   7.315963   2.364972   2.895475   3.397255
    17  C    7.064256   7.916990   2.756260   3.812487   4.508141
    18  C    7.327237   8.252334   3.617419   3.181606   3.452532
    19  C    8.416757   9.279229   4.107984   4.716084   5.414705
    20  H    6.685979   7.476637   2.473557   4.188121   4.936411
    21  C    8.631601   9.559638   4.737945   4.219830   4.563308
    22  H    7.112989   8.037044   3.935655   3.069924   3.027459
    23  C    9.183193  10.088575   4.991659   4.935625   5.486731
    24  H    9.403642  10.339518   5.697332   4.841976   5.044028
    25  O    9.249681  10.068355   4.966116   5.812270   6.585805
    26  H   10.113430  10.952639   5.811048   6.375749   7.116112
    27  C    4.961232   5.854872   1.420528   2.443244   2.775376
    28  H    4.983759   5.862947   2.060347   2.746515   2.694796
    29  C    2.776272   3.731188   2.899139   2.432508   2.484637
    30  H    2.941853   3.868470   3.495762   2.592168   2.218329
    31  H    2.566123   3.471426   3.794820   2.775086   2.893987
    32  C    4.253011   5.195233   2.428402   1.408415   1.943058
    33  H    4.582056   5.471906   2.629697   2.007602   2.798455
    34  O   10.402996  11.307227   6.184560   6.051741   6.607899
                   16         17         18         19         20
    16  C    0.000000
    17  C    1.386150   0.000000
    18  C    1.418500   2.437470   0.000000
    19  C    2.385047   1.380738   2.781528   0.000000
    20  H    2.152161   1.081490   3.423375   2.137489   0.000000
    21  C    2.424689   2.837249   1.360232   2.467859   3.918660
    22  H    2.158693   3.404475   1.083321   3.864218   4.301228
    23  C    2.824889   2.484079   2.425385   1.461952   3.463167
    24  H    3.418221   3.919158   2.141402   3.445220   5.000577
    25  O    3.615028   2.369938   4.105672   1.325745   2.634901
    26  H    4.222988   3.133487   4.425970   1.839906   3.562140
    27  C    1.501651   2.502577   2.518448   3.764461   2.721095
    28  H    2.134854   3.364838   2.623598   4.500167   3.714792
    29  C    3.844415   4.639125   4.666559   5.918601   4.528194
    30  H    4.215611   5.240068   4.758822   6.466583   5.297317
    31  H    4.651749   5.307588   5.470737   6.537371   5.118544
    32  C    2.523695   3.300230   3.372638   4.495307   3.373633
    33  H    2.749364   3.052163   3.799401   4.208297   2.895768
    34  O    4.066596   3.585055   3.587705   2.321804   4.456617
                   21         22         23         24         25
    21  C    0.000000
    22  H    2.118896   0.000000
    23  C    1.437000   3.411067   0.000000
    24  H    1.082097   2.474249   2.163500   0.000000
    25  O    3.654536   5.188802   2.364903   4.520559   0.000000
    26  H    3.679016   5.492683   2.252378   4.364595   0.975210
    27  C    3.779744   2.694703   4.324964   4.658785   4.871644
    28  H    3.971963   2.378159   4.799926   4.676268   5.694328
    29  C    5.935787   4.520517   6.533347   6.701633   6.889503
    30  H    6.072612   4.361400   6.881164   6.704752   7.551773
    31  H    6.666695   5.359290   7.192119   7.423918   7.419233
    32  C    4.550506   3.444693   5.069758   5.369910   5.507769
    33  H    4.787217   4.132398   5.006489   5.697061   5.022222
    34  O    2.383801   4.491051   1.244347   2.660280   2.627415
                   26         27         28         29         30
    26  H    0.000000
    27  C    5.592710   0.000000
    28  H    6.334768   1.099338   0.000000
    29  C    7.667070   2.496128   2.692548   0.000000
    30  H    8.265898   2.874677   2.641486   1.098411   0.000000
    31  H    8.200295   3.437266   3.740190   1.090546   1.752133
    32  C    6.234161   1.541899   2.156672   1.519755   2.144764
    33  H    5.802939   2.135689   3.038750   2.157091   3.043817
    34  O    2.028934   5.566951   6.033055   7.746537   8.100185
                   31         32         33         34
    31  H    0.000000
    32  C    2.150210   0.000000
    33  H    2.418161   1.092670   0.000000
    34  O    8.363875   6.264599   6.133493   0.000000
 Stoichiometry    C15H13O6(2)
 Framework group  C1[X(C15H13O6)]
 Deg. of freedom    96
 Full point group                 C1      NOp   1
 Largest Abelian subgroup         C1      NOp   1
 Largest concise Abelian subgroup C1      NOp   1
                         Standard orientation:                         
 ---------------------------------------------------------------------
 Center     Atomic      Atomic             Coordinates (Angstroms)
 Number     Number       Type             X           Y           Z
 ---------------------------------------------------------------------
      1          6           0        4.489427   -0.451001   -0.063469
      2          6           0        3.731270    0.696117   -0.221596
      3          6           0        2.339629    0.686054   -0.103217
      4          6           0        1.737140   -0.525776    0.206052
      5          6           0        2.470331   -1.697179    0.369241
      6          6           0        3.846293   -1.649003    0.227834
      7          1           0        5.568110   -0.436368   -0.160660
      8          1           0        1.949936   -2.616425    0.607833
      9          8           0        4.630813   -2.747343    0.371605
     10          1           0        4.084148   -3.510891    0.565590
     11          8           0        4.298419    1.897479   -0.509955
     12          1           0        5.246902    1.792606   -0.602964
     13          8           0        0.388865   -0.649204    0.342567
     14          8           0       -0.761443    2.742337   -0.458789
     15          1           0       -0.455213    3.303906    0.256718
     16          6           0       -1.817977    0.196704    0.428490
     17          6           0       -2.242428   -0.770729   -0.468910
     18          6           0       -2.754138    0.913731    1.216915
     19          6           0       -3.593828   -1.026158   -0.591025
     20          1           0       -1.530878   -1.330254   -1.060728
     21          6           0       -4.091133    0.684093    1.117207
     22          1           0       -2.385815    1.659856    1.910617
     23          6           0       -4.588774   -0.303676    0.199802
     24          1           0       -4.813608    1.224920    1.714258
     25          8           0       -4.068216   -1.938296   -1.428019
     26          1           0       -5.036376   -1.909859   -1.314476
     27          6           0       -0.360281    0.543431    0.527781
     28          1           0       -0.149281    0.947653    1.528095
     29          6           0        1.527798    1.929111   -0.335761
     30          1           0        1.636129    2.611768    0.517908
     31          1           0        1.896296    2.468697   -1.208885
     32          6           0        0.056044    1.596993   -0.518227
     33          1           0       -0.112671    1.155358   -1.503327
     34          8           0       -5.787679   -0.592128    0.033004
 ---------------------------------------------------------------------
 Rotational constants (GHZ):           0.6784602           0.1531666           0.1324886
 Standard basis: CC-pVTZ (5D, 7F)
 There are   930 symmetry adapted cartesian basis functions of A   symmetry.
 There are   812 symmetry adapted basis functions of A   symmetry.
   812 basis functions,  1313 primitive gaussians,   930 cartesian basis functions
    76 alpha electrons       75 beta electrons
       nuclear repulsion energy      1634.3196435986 Hartrees.
 NAtoms=   34 NActive=   34 NUniq=   34 SFac= 1.00D+00 NAtFMM=   60 NAOKFM=F Big=F
 Integral buffers will be    131072 words long.
 Raffenetti 2 integral format.
 Two-electron integral symmetry is turned on.
 Nuclear repulsion after empirical dispersion term =     1634.2958178368 Hartrees.
 One-electron integrals computed using PRISM.
 NBasis=   812 RedAO= T EigKep=  3.16D-05  NBF=   812
 NBsUse=   812 1.00D-06 EigRej= -1.00D+00 NBFU=   812
 ExpMin= 1.03D-01 ExpMax= 1.53D+04 ExpMxC= 5.22D+02 IAcc=3 IRadAn=         5 AccDes= 0.00D+00
 Harris functional with IExCor= 4639 and IRadAn=       5 diagonalized for initial guess.
 HarFok:  IExCor= 4639 AccDes= 0.00D+00 IRadAn=         5 IDoV= 1 UseB2=F ITyADJ=14
 ICtDFT=  3500011 ScaDFX=  1.000000  1.000000  1.000000  1.000000
 FoFCou: FMM=F IPFlag=           0 FMFlag=      100000 FMFlg1=           0
         NFxFlg=           0 DoJE=T BraDBF=F KetDBF=T FulRan=T
         wScrn=  0.000000 ICntrl=       500 IOpCl=  0 I1Cent=   200000004 NGrid=           0
         NMat0=    1 NMatS0=      1 NMatT0=    0 NMatD0=    1 NMtDS0=    0 NMtDT0=    0
 Petite list used in FoFCou.
 Initial guess <Sx>= 0.0000 <Sy>= 0.0000 <Sz>= 0.5000 <S**2>= 0.7500 S= 0.5000
 Requested convergence on RMS density matrix=1.00D-08 within 128 cycles.
 Requested convergence on MAX density matrix=1.00D-06.
 Requested convergence on             energy=1.00D-06.
 No special actions if energy rises.
 Integral accuracy reduced to 1.0D-05 until final iterations.
 Initial convergence to 1.0D-05 achieved.  Increase integral accuracy.
 SCF Done:  E(UwB97XD) =  -1030.76709644     A.U. after   20 cycles
            NFock= 20  Conv=0.74D-08     -V/T= 2.0061
 <Sx>= 0.0000 <Sy>= 0.0000 <Sz>= 0.5000 <S**2>= 0.7832 S= 0.5165
 <L.S>= 0.000000000000E+00
 Annihilation of the first spin contaminant:
 S**2 before annihilation     0.7832,   after     0.7507

 **********************************************************************

            Population analysis using the SCF Density.

 **********************************************************************

 Orbital symmetries:
 Alpha Orbitals:
       Occupied  (A) (A) (A) (A) (A) (A) (A) (A) (A) (A) (A) (A)
                 (A) (A) (A) (A) (A) (A) (A) (A) (A) (A) (A) (A)
                 (A) (A) (A) (A) (A) (A) (A) (A) (A) (A) (A) (A)
                 (A) (A) (A) (A) (A) (A) (A) (A) (A) (A) (A) (A)
                 (A) (A) (A) (A) (A) (A) (A) (A) (A) (A) (A) (A)
                 (A) (A) (A) (A) (A) (A) (A) (A) (A) (A) (A) (A)
                 (A) (A) (A) (A)
       Virtual   (A) (A) (A) (A) (A) (A) (A) (A) (A) (A) (A) (A)
                 (A) (A) (A) (A) (A) (A) (A) (A) (A) (A) (A) (A)
                 (A) (A) (A) (A) (A) (A) (A) (A) (A) (A) (A) (A)
                 (A) (A) (A) (A) (A) (A) (A) (A) (A) (A) (A) (A)
                 (A) (A) (A) (A) (A) (A) (A) (A) (A) (A) (A) (A)
                 (A) (A) (A) (A) (A) (A) (A) (A) (A) (A) (A) (A)
                 (A) (A) (A) (A) (A) (A) (A) (A) (A) (A) (A) (A)
                 (A) (A) (A) (A) (A) (A) (A) (A) (A) (A) (A) (A)
                 (A) (A) (A) (A) (A) (A) (A) (A) (A) (A) (A) (A)
                 (A) (A) (A) (A) (A) (A) (A) (A) (A) (A) (A) (A)
                 (A) (A) (A) (A) (A) (A) (A) (A) (A) (A) (A) (A)
                 (A) (A) (A) (A) (A) (A) (A) (A) (A) (A) (A) (A)
                 (A) (A) (A) (A) (A) (A) (A) (A) (A) (A) (A) (A)
                 (A) (A) (A) (A) (A) (A) (A) (A) (A) (A) (A) (A)
                 (A) (A) (A) (A) (A) (A) (A) (A) (A) (A) (A) (A)
                 (A) (A) (A) (A) (A) (A) (A) (A) (A) (A) (A) (A)
                 (A) (A) (A) (A) (A) (A) (A) (A) (A) (A) (A) (A)
                 (A) (A) (A) (A) (A) (A) (A) (A) (A) (A) (A) (A)
                 (A) (A) (A) (A) (A) (A) (A) (A) (A) (A) (A) (A)
                 (A) (A) (A) (A) (A) (A) (A) (A) (A) (A) (A) (A)
                 (A) (A) (A) (A) (A) (A) (A) (A) (A) (A) (A) (A)
                 (A) (A) (A) (A) (A) (A) (A) (A) (A) (A) (A) (A)
                 (A) (A) (A) (A) (A) (A) (A) (A) (A) (A) (A) (A)
                 (A) (A) (A) (A) (A) (A) (A) (A) (A) (A) (A) (A)
                 (A) (A) (A) (A) (A) (A) (A) (A) (A) (A) (A) (A)
                 (A) (A) (A) (A) (A) (A) (A) (A) (A) (A) (A) (A)
                 (A) (A) (A) (A) (A) (A) (A) (A) (A) (A) (A) (A)
                 (A) (A) (A) (A) (A) (A) (A) (A) (A) (A) (A) (A)
                 (A) (A) (A) (A) (A) (A) (A) (A) (A) (A) (A) (A)
                 (A) (A) (A) (A) (A) (A) (A) (A) (A) (A) (A) (A)
                 (A) (A) (A) (A) (A) (A) (A) (A) (A) (A) (A) (A)
                 (A) (A) (A) (A) (A) (A) (A) (A) (A) (A) (A) (A)
                 (A) (A) (A) (A) (A) (A) (A) (A) (A) (A) (A) (A)
                 (A) (A) (A) (A) (A) (A) (A) (A) (A) (A) (A) (A)
                 (A) (A) (A) (A) (A) (A) (A) (A) (A) (A) (A) (A)
                 (A) (A) (A) (A) (A) (A) (A) (A) (A) (A) (A) (A)
                 (A) (A) (A) (A) (A) (A) (A) (A) (A) (A) (A) (A)
                 (A) (A) (A) (A) (A) (A) (A) (A) (A) (A) (A) (A)
                 (A) (A) (A) (A) (A) (A) (A) (A) (A) (A) (A) (A)
                 (A) (A) (A) (A) (A) (A) (A) (A) (A) (A) (A) (A)
                 (A) (A) (A) (A) (A) (A) (A) (A) (A) (A) (A) (A)
                 (A) (A) (A) (A) (A) (A) (A) (A) (A) (A) (A) (A)
                 (A) (A) (A) (A) (A) (A) (A) (A) (A) (A) (A) (A)
                 (A) (A) (A) (A) (A) (A) (A) (A) (A) (A) (A) (A)
                 (A) (A) (A) (A) (A) (A) (A) (A) (A) (A) (A) (A)
                 (A) (A) (A) (A) (A) (A) (A) (A) (A) (A) (A) (A)
                 (A) (A) (A) (A) (A) (A) (A) (A) (A) (A) (A) (A)
                 (A) (A) (A) (A) (A) (A) (A) (A) (A) (A) (A) (A)
                 (A) (A) (A) (A) (A) (A) (A) (A) (A) (A) (A) (A)
                 (A) (A) (A) (A) (A) (A) (A) (A) (A) (A) (A) (A)
                 (A) (A) (A) (A) (A) (A) (A) (A) (A) (A) (A) (A)
                 (A) (A) (A) (A) (A) (A) (A) (A) (A) (A) (A) (A)
                 (A) (A) (A) (A) (A) (A) (A) (A) (A) (A) (A) (A)
                 (A) (A) (A) (A) (A) (A) (A) (A) (A) (A) (A) (A)
                 (A) (A) (A) (A) (A) (A) (A) (A) (A) (A) (A) (A)
                 (A) (A) (A) (A) (A) (A) (A) (A) (A) (A) (A) (A)
                 (A) (A) (A) (A) (A) (A) (A) (A) (A) (A) (A) (A)
                 (A) (A) (A) (A) (A) (A) (A) (A) (A) (A) (A) (A)
                 (A) (A) (A) (A) (A) (A) (A) (A) (A) (A) (A) (A)
                 (A) (A) (A) (A) (A) (A) (A) (A) (A) (A) (A) (A)
                 (A) (A) (A) (A) (A) (A) (A) (A) (A) (A) (A) (A)
                 (A) (A) (A) (A)
 Beta  Orbitals:
       Occupied  (A) (A) (A) (A) (A) (A) (A) (A) (A) (A) (A) (A)
                 (A) (A) (A) (A) (A) (A) (A) (A) (A) (A) (A) (A)
                 (A) (A) (A) (A) (A) (A) (A) (A) (A) (A) (A) (A)
                 (A) (A) (A) (A) (A) (A) (A) (A) (A) (A) (A) (A)
                 (A) (A) (A) (A) (A) (A) (A) (A) (A) (A) (A) (A)
                 (A) (A) (A) (A) (A) (A) (A) (A) (A) (A) (A) (A)
                 (A) (A) (A)
       Virtual   (A) (A) (A) (A) (A) (A) (A) (A) (A) (A) (A) (A)
                 (A) (A) (A) (A) (A) (A) (A) (A) (A) (A) (A) (A)
                 (A) (A) (A) (A) (A) (A) (A) (A) (A) (A) (A) (A)
                 (A) (A) (A) (A) (A) (A) (A) (A) (A) (A) (A) (A)
                 (A) (A) (A) (A) (A) (A) (A) (A) (A) (A) (A) (A)
                 (A) (A) (A) (A) (A) (A) (A) (A) (A) (A) (A) (A)
                 (A) (A) (A) (A) (A) (A) (A) (A) (A) (A) (A) (A)
                 (A) (A) (A) (A) (A) (A) (A) (A) (A) (A) (A) (A)
                 (A) (A) (A) (A) (A) (A) (A) (A) (A) (A) (A) (A)
                 (A) (A) (A) (A) (A) (A) (A) (A) (A) (A) (A) (A)
                 (A) (A) (A) (A) (A) (A) (A) (A) (A) (A) (A) (A)
                 (A) (A) (A) (A) (A) (A) (A) (A) (A) (A) (A) (A)
                 (A) (A) (A) (A) (A) (A) (A) (A) (A) (A) (A) (A)
                 (A) (A) (A) (A) (A) (A) (A) (A) (A) (A) (A) (A)
                 (A) (A) (A) (A) (A) (A) (A) (A) (A) (A) (A) (A)
                 (A) (A) (A) (A) (A) (A) (A) (A) (A) (A) (A) (A)
                 (A) (A) (A) (A) (A) (A) (A) (A) (A) (A) (A) (A)
                 (A) (A) (A) (A) (A) (A) (A) (A) (A) (A) (A) (A)
                 (A) (A) (A) (A) (A) (A) (A) (A) (A) (A) (A) (A)
                 (A) (A) (A) (A) (A) (A) (A) (A) (A) (A) (A) (A)
                 (A) (A) (A) (A) (A) (A) (A) (A) (A) (A) (A) (A)
                 (A) (A) (A) (A) (A) (A) (A) (A) (A) (A) (A) (A)
                 (A) (A) (A) (A) (A) (A) (A) (A) (A) (A) (A) (A)
                 (A) (A) (A) (A) (A) (A) (A) (A) (A) (A) (A) (A)
                 (A) (A) (A) (A) (A) (A) (A) (A) (A) (A) (A) (A)
                 (A) (A) (A) (A) (A) (A) (A) (A) (A) (A) (A) (A)
                 (A) (A) (A) (A) (A) (A) (A) (A) (A) (A) (A) (A)
                 (A) (A) (A) (A) (A) (A) (A) (A) (A) (A) (A) (A)
                 (A) (A) (A) (A) (A) (A) (A) (A) (A) (A) (A) (A)
                 (A) (A) (A) (A) (A) (A) (A) (A) (A) (A) (A) (A)
                 (A) (A) (A) (A) (A) (A) (A) (A) (A) (A) (A) (A)
                 (A) (A) (A) (A) (A) (A) (A) (A) (A) (A) (A) (A)
                 (A) (A) (A) (A) (A) (A) (A) (A) (A) (A) (A) (A)
                 (A) (A) (A) (A) (A) (A) (A) (A) (A) (A) (A) (A)
                 (A) (A) (A) (A) (A) (A) (A) (A) (A) (A) (A) (A)
                 (A) (A) (A) (A) (A) (A) (A) (A) (A) (A) (A) (A)
                 (A) (A) (A) (A) (A) (A) (A) (A) (A) (A) (A) (A)
                 (A) (A) (A) (A) (A) (A) (A) (A) (A) (A) (A) (A)
                 (A) (A) (A) (A) (A) (A) (A) (A) (A) (A) (A) (A)
                 (A) (A) (A) (A) (A) (A) (A) (A) (A) (A) (A) (A)
                 (A) (A) (A) (A) (A) (A) (A) (A) (A) (A) (A) (A)
                 (A) (A) (A) (A) (A) (A) (A) (A) (A) (A) (A) (A)
                 (A) (A) (A) (A) (A) (A) (A) (A) (A) (A) (A) (A)
                 (A) (A) (A) (A) (A) (A) (A) (A) (A) (A) (A) (A)
                 (A) (A) (A) (A) (A) (A) (A) (A) (A) (A) (A) (A)
                 (A) (A) (A) (A) (A) (A) (A) (A) (A) (A) (A) (A)
                 (A) (A) (A) (A) (A) (A) (A) (A) (A) (A) (A) (A)
                 (A) (A) (A) (A) (A) (A) (A) (A) (A) (A) (A) (A)
                 (A) (A) (A) (A) (A) (A) (A) (A) (A) (A) (A) (A)
                 (A) (A) (A) (A) (A) (A) (A) (A) (A) (A) (A) (A)
                 (A) (A) (A) (A) (A) (A) (A) (A) (A) (A) (A) (A)
                 (A) (A) (A) (A) (A) (A) (A) (A) (A) (A) (A) (A)
                 (A) (A) (A) (A) (A) (A) (A) (A) (A) (A) (A) (A)
                 (A) (A) (A) (A) (A) (A) (A) (A) (A) (A) (A) (A)
                 (A) (A) (A) (A) (A) (A) (A) (A) (A) (A) (A) (A)
                 (A) (A) (A) (A) (A) (A) (A) (A) (A) (A) (A) (A)
                 (A) (A) (A) (A) (A) (A) (A) (A) (A) (A) (A) (A)
                 (A) (A) (A) (A) (A) (A) (A) (A) (A) (A) (A) (A)
                 (A) (A) (A) (A) (A) (A) (A) (A) (A) (A) (A) (A)
                 (A) (A) (A) (A) (A) (A) (A) (A) (A) (A) (A) (A)
                 (A) (A) (A) (A) (A) (A) (A) (A) (A) (A) (A) (A)
                 (A) (A) (A) (A) (A)
 The electronic state is 2-A.
 Alpha  occ. eigenvalues --  -19.30101 -19.29697 -19.29520 -19.29034 -19.26822
 Alpha  occ. eigenvalues --  -19.24548 -10.37283 -10.36585 -10.36464 -10.36366
 Alpha  occ. eigenvalues --  -10.36343 -10.36274 -10.35644 -10.32902 -10.30819
 Alpha  occ. eigenvalues --  -10.30399 -10.30381 -10.29841 -10.29578 -10.28553
 Alpha  occ. eigenvalues --  -10.28498  -1.20077  -1.19188  -1.18116  -1.17645
 Alpha  occ. eigenvalues --   -1.14777  -1.13579  -0.97854  -0.96309  -0.91392
 Alpha  occ. eigenvalues --   -0.88642  -0.86562  -0.84502  -0.82881  -0.77622
 Alpha  occ. eigenvalues --   -0.75164  -0.73396  -0.72310  -0.71594  -0.70075
 Alpha  occ. eigenvalues --   -0.67016  -0.64792  -0.61843  -0.61503  -0.59960
 Alpha  occ. eigenvalues --   -0.59145  -0.58598  -0.58001  -0.57498  -0.55406
 Alpha  occ. eigenvalues --   -0.54973  -0.54185  -0.53405  -0.53027  -0.52164
 Alpha  occ. eigenvalues --   -0.50998  -0.50235  -0.49624  -0.49234  -0.48508
 Alpha  occ. eigenvalues --   -0.47835  -0.47498  -0.46729  -0.46164  -0.45751
 Alpha  occ. eigenvalues --   -0.44890  -0.43845  -0.43255  -0.41642  -0.38882
 Alpha  occ. eigenvalues --   -0.36832  -0.35839  -0.33897  -0.30548  -0.29950
 Alpha  occ. eigenvalues --   -0.28563
 Alpha virt. eigenvalues --    0.05121   0.05510   0.06873   0.07114   0.09731
 Alpha virt. eigenvalues --    0.10427   0.10872   0.13193   0.13736   0.13983
 Alpha virt. eigenvalues --    0.14887   0.15370   0.16653   0.17052   0.17949
 Alpha virt. eigenvalues --    0.19100   0.19840   0.21412   0.23550   0.24077
 Alpha virt. eigenvalues --    0.24519   0.25626   0.26623   0.26909   0.27146
 Alpha virt. eigenvalues --    0.28644   0.29917   0.30363   0.30857   0.31292
 Alpha virt. eigenvalues --    0.32102   0.32334   0.33563   0.33798   0.34988
 Alpha virt. eigenvalues --    0.35171   0.36123   0.36523   0.36933   0.38455
 Alpha virt. eigenvalues --    0.38725   0.39251   0.39752   0.40520   0.40916
 Alpha virt. eigenvalues --    0.41292   0.41886   0.41987   0.42728   0.42779
 Alpha virt. eigenvalues --    0.43326   0.44035   0.44508   0.45048   0.45180
 Alpha virt. eigenvalues --    0.46027   0.46622   0.47361   0.47447   0.47785
 Alpha virt. eigenvalues --    0.48314   0.48811   0.49106   0.49475   0.49736
 Alpha virt. eigenvalues --    0.50124   0.50680   0.51003   0.51481   0.51828
 Alpha virt. eigenvalues --    0.51972   0.53340   0.53565   0.53689   0.54250
 Alpha virt. eigenvalues --    0.54915   0.55439   0.56096   0.56494   0.56962
 Alpha virt. eigenvalues --    0.57320   0.58225   0.58565   0.58891   0.59564
 Alpha virt. eigenvalues --    0.60590   0.62263   0.63447   0.63702   0.63894
 Alpha virt. eigenvalues --    0.65062   0.65429   0.66084   0.66677   0.67725
 Alpha virt. eigenvalues --    0.68190   0.69459   0.69738   0.70918   0.70985
 Alpha virt. eigenvalues --    0.71731   0.72318   0.72935   0.73320   0.74339
 Alpha virt. eigenvalues --    0.75144   0.75548   0.75661   0.76137   0.77183
 Alpha virt. eigenvalues --    0.77832   0.78300   0.78923   0.79321   0.79955
 Alpha virt. eigenvalues --    0.80421   0.81238   0.81484   0.82119   0.82972
 Alpha virt. eigenvalues --    0.83796   0.84146   0.85096   0.85394   0.86183
 Alpha virt. eigenvalues --    0.87017   0.87327   0.87945   0.88799   0.88837
 Alpha virt. eigenvalues --    0.89605   0.90908   0.91733   0.92238   0.92714
 Alpha virt. eigenvalues --    0.93190   0.93717   0.94224   0.95303   0.95802
 Alpha virt. eigenvalues --    0.96168   0.96990   0.98469   0.98753   0.99469
 Alpha virt. eigenvalues --    1.00057   1.01109   1.01560   1.02030   1.03159
 Alpha virt. eigenvalues --    1.03307   1.04202   1.05026   1.05732   1.06828
 Alpha virt. eigenvalues --    1.07892   1.08103   1.08704   1.09411   1.11071
 Alpha virt. eigenvalues --    1.11451   1.12617   1.13064   1.14907   1.15586
 Alpha virt. eigenvalues --    1.15941   1.16878   1.17169   1.17734   1.18774
 Alpha virt. eigenvalues --    1.21611   1.21800   1.22176   1.23474   1.23676
 Alpha virt. eigenvalues --    1.25429   1.25773   1.26275   1.28072   1.28279
 Alpha virt. eigenvalues --    1.28953   1.29404   1.30263   1.31131   1.32249
 Alpha virt. eigenvalues --    1.32645   1.33426   1.34373   1.34517   1.35353
 Alpha virt. eigenvalues --    1.35848   1.36361   1.37024   1.37678   1.39089
 Alpha virt. eigenvalues --    1.40341   1.40512   1.41542   1.41783   1.41911
 Alpha virt. eigenvalues --    1.42593   1.42977   1.43862   1.44501   1.45749
 Alpha virt. eigenvalues --    1.45967   1.46440   1.47093   1.47851   1.48022
 Alpha virt. eigenvalues --    1.49877   1.50772   1.51003   1.51269   1.52376
 Alpha virt. eigenvalues --    1.53280   1.53604   1.54795   1.56339   1.56928
 Alpha virt. eigenvalues --    1.57323   1.58142   1.60301   1.61931   1.62578
 Alpha virt. eigenvalues --    1.63790   1.64434   1.65759   1.67060   1.68743
 Alpha virt. eigenvalues --    1.69415   1.70540   1.71742   1.72926   1.75354
 Alpha virt. eigenvalues --    1.75541   1.78372   1.79139   1.79332   1.81378
 Alpha virt. eigenvalues --    1.83060   1.84033   1.84940   1.87641   1.89809
 Alpha virt. eigenvalues --    1.90315   1.92934   1.94050   1.95027   1.95925
 Alpha virt. eigenvalues --    1.97419   1.98088   1.99247   1.99968   2.01214
 Alpha virt. eigenvalues --    2.01810   2.03668   2.04561   2.05590   2.06826
 Alpha virt. eigenvalues --    2.08027   2.08822   2.09875   2.10789   2.13544
 Alpha virt. eigenvalues --    2.14782   2.15814   2.18149   2.18958   2.19322
 Alpha virt. eigenvalues --    2.20593   2.20867   2.21685   2.22398   2.23696
 Alpha virt. eigenvalues --    2.24326   2.25924   2.27250   2.29355   2.29714
 Alpha virt. eigenvalues --    2.30257   2.30903   2.32839   2.33208   2.33362
 Alpha virt. eigenvalues --    2.34765   2.35228   2.35778   2.36901   2.38758
 Alpha virt. eigenvalues --    2.39354   2.40325   2.41698   2.42441   2.44204
 Alpha virt. eigenvalues --    2.44555   2.45784   2.47062   2.48161   2.48572
 Alpha virt. eigenvalues --    2.49733   2.50964   2.51980   2.53087   2.53748
 Alpha virt. eigenvalues --    2.53999   2.55003   2.56075   2.57088   2.58356
 Alpha virt. eigenvalues --    2.58708   2.60070   2.60482   2.60803   2.61809
 Alpha virt. eigenvalues --    2.63964   2.65094   2.65681   2.67065   2.68427
 Alpha virt. eigenvalues --    2.68978   2.69601   2.70188   2.70899   2.71683
 Alpha virt. eigenvalues --    2.72680   2.73591   2.75956   2.76470   2.76672
 Alpha virt. eigenvalues --    2.77128   2.78396   2.79515   2.80091   2.80952
 Alpha virt. eigenvalues --    2.81284   2.82128   2.83175   2.83237   2.83910
 Alpha virt. eigenvalues --    2.84273   2.85570   2.85770   2.87109   2.87217
 Alpha virt. eigenvalues --    2.87921   2.88829   2.89276   2.89521   2.90273
 Alpha virt. eigenvalues --    2.92020   2.92746   2.93419   2.94359   2.94886
 Alpha virt. eigenvalues --    2.97309   2.98043   2.98477   2.99109   2.99427
 Alpha virt. eigenvalues --    3.00109   3.01276   3.01493   3.02621   3.02801
 Alpha virt. eigenvalues --    3.04162   3.04270   3.04973   3.05418   3.06691
 Alpha virt. eigenvalues --    3.07160   3.08312   3.09437   3.09813   3.10440
 Alpha virt. eigenvalues --    3.10719   3.11222   3.12094   3.13168   3.13597
 Alpha virt. eigenvalues --    3.14186   3.14658   3.14843   3.15816   3.16022
 Alpha virt. eigenvalues --    3.16618   3.17362   3.17568   3.18476   3.19198
 Alpha virt. eigenvalues --    3.19374   3.19760   3.20458   3.20704   3.22314
 Alpha virt. eigenvalues --    3.22828   3.23190   3.24123   3.24954   3.26531
 Alpha virt. eigenvalues --    3.26640   3.27025   3.28202   3.28977   3.29713
 Alpha virt. eigenvalues --    3.30298   3.31234   3.32981   3.33301   3.33364
 Alpha virt. eigenvalues --    3.33835   3.34801   3.35494   3.36525   3.36906
 Alpha virt. eigenvalues --    3.37399   3.38470   3.39341   3.40375   3.40698
 Alpha virt. eigenvalues --    3.41664   3.42092   3.42422   3.43385   3.43738
 Alpha virt. eigenvalues --    3.44196   3.44434   3.44748   3.45584   3.45918
 Alpha virt. eigenvalues --    3.46783   3.47797   3.49023   3.49961   3.50618
 Alpha virt. eigenvalues --    3.51616   3.52671   3.53495   3.54274   3.55284
 Alpha virt. eigenvalues --    3.55592   3.56537   3.57523   3.58420   3.59085
 Alpha virt. eigenvalues --    3.60092   3.60706   3.62377   3.63143   3.64403
 Alpha virt. eigenvalues --    3.65292   3.65791   3.67900   3.68585   3.69289
 Alpha virt. eigenvalues --    3.69453   3.70915   3.71409   3.72455   3.72848
 Alpha virt. eigenvalues --    3.73411   3.74623   3.75192   3.75407   3.76717
 Alpha virt. eigenvalues --    3.77239   3.77573   3.78038   3.78796   3.79117
 Alpha virt. eigenvalues --    3.79943   3.81449   3.81869   3.82524   3.83421
 Alpha virt. eigenvalues --    3.83549   3.85241   3.86364   3.87345   3.87509
 Alpha virt. eigenvalues --    3.88548   3.88698   3.90047   3.90724   3.90827
 Alpha virt. eigenvalues --    3.92011   3.92425   3.93137   3.93272   3.94663
 Alpha virt. eigenvalues --    3.95087   3.95220   3.95754   3.96458   3.97739
 Alpha virt. eigenvalues --    3.98220   3.99214   4.00375   4.01066   4.02054
 Alpha virt. eigenvalues --    4.03050   4.03910   4.04169   4.05534   4.05848
 Alpha virt. eigenvalues --    4.06711   4.08352   4.08737   4.09343   4.09534
 Alpha virt. eigenvalues --    4.10321   4.11203   4.11411   4.13282   4.13776
 Alpha virt. eigenvalues --    4.15040   4.16080   4.17412   4.17971   4.18865
 Alpha virt. eigenvalues --    4.19421   4.20621   4.21551   4.22527   4.23221
 Alpha virt. eigenvalues --    4.23944   4.24603   4.25512   4.26246   4.26537
 Alpha virt. eigenvalues --    4.27301   4.28396   4.28898   4.29637   4.30683
 Alpha virt. eigenvalues --    4.31686   4.32430   4.33166   4.34589   4.35764
 Alpha virt. eigenvalues --    4.36471   4.37607   4.38349   4.38577   4.39140
 Alpha virt. eigenvalues --    4.40629   4.41067   4.41681   4.42275   4.43354
 Alpha virt. eigenvalues --    4.43747   4.44460   4.44742   4.45479   4.47261
 Alpha virt. eigenvalues --    4.48723   4.49208   4.50989   4.52809   4.54212
 Alpha virt. eigenvalues --    4.54622   4.57196   4.58721   4.59856   4.60759
 Alpha virt. eigenvalues --    4.62112   4.65333   4.66317   4.67049   4.68165
 Alpha virt. eigenvalues --    4.69601   4.71085   4.71950   4.72726   4.73345
 Alpha virt. eigenvalues --    4.76515   4.77054   4.78130   4.78962   4.79844
 Alpha virt. eigenvalues --    4.81473   4.82536   4.83152   4.84002   4.86513
 Alpha virt. eigenvalues --    4.87011   4.90116   4.90275   4.90475   4.93789
 Alpha virt. eigenvalues --    4.95173   4.95674   4.96028   4.99348   5.00915
 Alpha virt. eigenvalues --    5.01172   5.02392   5.03884   5.05237   5.08027
 Alpha virt. eigenvalues --    5.09673   5.10507   5.12737   5.13827   5.16582
 Alpha virt. eigenvalues --    5.17400   5.18928   5.19386   5.20350   5.22982
 Alpha virt. eigenvalues --    5.23805   5.24201   5.26681   5.29294   5.30441
 Alpha virt. eigenvalues --    5.31168   5.31672   5.33151   5.34450   5.37799
 Alpha virt. eigenvalues --    5.38419   5.40461   5.43912   5.45095   5.48085
 Alpha virt. eigenvalues --    5.48492   5.51014   5.52196   5.53676   5.56075
 Alpha virt. eigenvalues --    5.57469   5.57747   5.58101   5.61190   5.63271
 Alpha virt. eigenvalues --    5.63961   5.65290   5.67551   5.70020   5.72248
 Alpha virt. eigenvalues --    5.72861   5.75760   5.80626   5.81707   5.83804
 Alpha virt. eigenvalues --    5.86741   5.87660   5.91131   5.92240   5.93163
 Alpha virt. eigenvalues --    5.93845   5.96091   5.97987   6.01937   6.04274
 Alpha virt. eigenvalues --    6.08234   6.10288   6.11289   6.13851   6.18660
 Alpha virt. eigenvalues --    6.19612   6.25996   6.34953   6.39230   6.40091
 Alpha virt. eigenvalues --    6.42630   6.45738   6.47986   6.48343   6.50686
 Alpha virt. eigenvalues --    6.51362   6.52863   6.54372   6.59423   6.60492
 Alpha virt. eigenvalues --    6.67619   6.69093   6.69131   6.70097   6.71247
 Alpha virt. eigenvalues --    6.76920   6.79314   6.80805   6.81456   6.84142
 Alpha virt. eigenvalues --    6.84828   6.85431   6.85785   6.86176   6.87227
 Alpha virt. eigenvalues --    6.90512   6.91255   6.94063   6.94100   6.96735
 Alpha virt. eigenvalues --    6.98034   7.02128   7.06152   7.09512   7.12827
 Alpha virt. eigenvalues --    7.13042   7.14076   7.15021   7.20098   7.25676
 Alpha virt. eigenvalues --    7.35752   7.38986   7.42035   7.45065   7.47714
 Alpha virt. eigenvalues --    7.52711   7.53451   7.55304   7.57246   7.61383
 Alpha virt. eigenvalues --    8.56388   8.63424  11.60838  11.62506  11.96528
 Alpha virt. eigenvalues --   12.02766  12.13646  12.36378  12.41463  12.52615
 Alpha virt. eigenvalues --   12.57236  12.70763  12.95906  13.03192  13.10763
 Alpha virt. eigenvalues --   13.29754  13.46747  13.65159  13.80914  15.42412
 Alpha virt. eigenvalues --   15.55577
  Beta  occ. eigenvalues --  -19.29860 -19.29685 -19.29520 -19.29033 -19.26821
  Beta  occ. eigenvalues --  -19.23751 -10.36949 -10.36614 -10.36464 -10.36385
  Beta  occ. eigenvalues --  -10.36366 -10.36274 -10.35606 -10.32516 -10.30896
  Beta  occ. eigenvalues --  -10.30378 -10.30201 -10.30017 -10.29578 -10.28553
  Beta  occ. eigenvalues --  -10.28497  -1.19390  -1.19152  -1.18115  -1.17645
  Beta  occ. eigenvalues --   -1.14765  -1.11973  -0.97349  -0.96123  -0.91255
  Beta  occ. eigenvalues --   -0.88330  -0.86255  -0.84325  -0.82299  -0.77270
  Beta  occ. eigenvalues --   -0.75101  -0.73334  -0.71938  -0.71179  -0.70041
  Beta  occ. eigenvalues --   -0.66915  -0.64541  -0.61656  -0.61365  -0.59947
  Beta  occ. eigenvalues --   -0.59020  -0.58571  -0.57848  -0.57225  -0.55168
  Beta  occ. eigenvalues --   -0.54130  -0.53352  -0.53070  -0.52378  -0.51767
  Beta  occ. eigenvalues --   -0.50901  -0.50099  -0.49606  -0.48981  -0.48316
  Beta  occ. eigenvalues --   -0.47407  -0.46614  -0.46096  -0.45701  -0.45037
  Beta  occ. eigenvalues --   -0.44614  -0.43425  -0.42121  -0.40000  -0.38842
  Beta  occ. eigenvalues --   -0.36601  -0.34878  -0.32841  -0.30527  -0.29946
  Beta virt. eigenvalues --   -0.06480   0.06528   0.07088   0.07267   0.08762
  Beta virt. eigenvalues --    0.09795   0.10487   0.10879   0.13241   0.13752
  Beta virt. eigenvalues --    0.14052   0.15039   0.15403   0.16658   0.17105
  Beta virt. eigenvalues --    0.17964   0.19183   0.19885   0.22336   0.23772
  Beta virt. eigenvalues --    0.24123   0.24937   0.25756   0.26799   0.27022
  Beta virt. eigenvalues --    0.27325   0.28703   0.30027   0.30515   0.30875
  Beta virt. eigenvalues --    0.31434   0.32111   0.32427   0.33591   0.33988
  Beta virt. eigenvalues --    0.35100   0.35222   0.36216   0.36617   0.37174
  Beta virt. eigenvalues --    0.38546   0.38826   0.39317   0.39843   0.40588
  Beta virt. eigenvalues --    0.40957   0.41405   0.41936   0.42086   0.42841
  Beta virt. eigenvalues --    0.42901   0.43440   0.44137   0.44641   0.45213
  Beta virt. eigenvalues --    0.45310   0.46109   0.46728   0.47388   0.47540
  Beta virt. eigenvalues --    0.47846   0.48454   0.48944   0.49178   0.49588
  Beta virt. eigenvalues --    0.49930   0.50246   0.50735   0.51087   0.51859
  Beta virt. eigenvalues --    0.51943   0.52148   0.53421   0.53630   0.53793
  Beta virt. eigenvalues --    0.54344   0.55012   0.55572   0.56179   0.56612
  Beta virt. eigenvalues --    0.57023   0.57340   0.58311   0.58649   0.58990
  Beta virt. eigenvalues --    0.59620   0.60622   0.62345   0.63558   0.63789
  Beta virt. eigenvalues --    0.63947   0.65154   0.65705   0.66206   0.66800
  Beta virt. eigenvalues --    0.67750   0.68315   0.69482   0.69808   0.71025
  Beta virt. eigenvalues --    0.71078   0.71969   0.72486   0.72967   0.73599
  Beta virt. eigenvalues --    0.74405   0.75170   0.75592   0.75792   0.76235
  Beta virt. eigenvalues --    0.77295   0.77966   0.78472   0.79030   0.79425
  Beta virt. eigenvalues --    0.80087   0.80514   0.81278   0.81534   0.82490
  Beta virt. eigenvalues --    0.83178   0.83924   0.84378   0.85147   0.85710
  Beta virt. eigenvalues --    0.86304   0.87135   0.87454   0.88011   0.88903
  Beta virt. eigenvalues --    0.89124   0.89698   0.91135   0.91761   0.92415
  Beta virt. eigenvalues --    0.92795   0.93258   0.93789   0.94298   0.95378
  Beta virt. eigenvalues --    0.95889   0.96239   0.97125   0.98543   0.98893
  Beta virt. eigenvalues --    0.99553   1.00123   1.01143   1.01596   1.02065
  Beta virt. eigenvalues --    1.03176   1.03322   1.04263   1.05038   1.05817
  Beta virt. eigenvalues --    1.06889   1.07920   1.08235   1.08805   1.09560
  Beta virt. eigenvalues --    1.11163   1.11503   1.12703   1.13195   1.14948
  Beta virt. eigenvalues --    1.15629   1.15985   1.17069   1.17212   1.17792
  Beta virt. eigenvalues --    1.18849   1.21657   1.21879   1.22348   1.23591
  Beta virt. eigenvalues --    1.23803   1.25458   1.25864   1.26501   1.28159
  Beta virt. eigenvalues --    1.28324   1.29052   1.29597   1.30331   1.31302
  Beta virt. eigenvalues --    1.32322   1.32744   1.33577   1.34487   1.34624
  Beta virt. eigenvalues --    1.35505   1.35969   1.36470   1.37155   1.37771
  Beta virt. eigenvalues --    1.39198   1.40434   1.40601   1.41697   1.41916
  Beta virt. eigenvalues --    1.41997   1.42733   1.43052   1.43934   1.44588
  Beta virt. eigenvalues --    1.45810   1.46018   1.46531   1.47216   1.47960
  Beta virt. eigenvalues --    1.48184   1.50071   1.50864   1.51105   1.51405
  Beta virt. eigenvalues --    1.52424   1.53316   1.53704   1.54905   1.56521
  Beta virt. eigenvalues --    1.57075   1.57453   1.58407   1.60390   1.62079
  Beta virt. eigenvalues --    1.62684   1.63855   1.64554   1.65890   1.67198
  Beta virt. eigenvalues --    1.68832   1.69468   1.70697   1.71923   1.72990
  Beta virt. eigenvalues --    1.75534   1.75671   1.78634   1.79429   1.79523
  Beta virt. eigenvalues --    1.81653   1.83240   1.84304   1.85660   1.87821
  Beta virt. eigenvalues --    1.89978   1.90349   1.93557   1.94390   1.95299
  Beta virt. eigenvalues --    1.96221   1.97662   1.98162   1.99311   1.99991
  Beta virt. eigenvalues --    2.01240   2.01844   2.03783   2.04717   2.05902
  Beta virt. eigenvalues --    2.07047   2.08270   2.09061   2.09914   2.11152
  Beta virt. eigenvalues --    2.13811   2.15383   2.16073   2.18181   2.19013
  Beta virt. eigenvalues --    2.19542   2.20727   2.21159   2.21853   2.22703
  Beta virt. eigenvalues --    2.24216   2.24467   2.26129   2.27290   2.29453
  Beta virt. eigenvalues --    2.29754   2.30588   2.31458   2.33285   2.33636
  Beta virt. eigenvalues --    2.34114   2.34895   2.35701   2.36035   2.37021
  Beta virt. eigenvalues --    2.39088   2.39611   2.40446   2.41837   2.42504
  Beta virt. eigenvalues --    2.44467   2.44714   2.46142   2.47257   2.48286
  Beta virt. eigenvalues --    2.48958   2.50007   2.51097   2.52214   2.53224
  Beta virt. eigenvalues --    2.53856   2.54286   2.55204   2.56323   2.57247
  Beta virt. eigenvalues --    2.58659   2.58789   2.60235   2.60772   2.61030
  Beta virt. eigenvalues --    2.62000   2.64070   2.65209   2.65865   2.67177
  Beta virt. eigenvalues --    2.68589   2.69075   2.69724   2.70465   2.71009
  Beta virt. eigenvalues --    2.71801   2.72941   2.73820   2.76121   2.76618
  Beta virt. eigenvalues --    2.76873   2.77319   2.78515   2.79740   2.80192
  Beta virt. eigenvalues --    2.81155   2.81469   2.82326   2.83278   2.83418
  Beta virt. eigenvalues --    2.84150   2.84352   2.85677   2.85851   2.87231
  Beta virt. eigenvalues --    2.87309   2.87974   2.89012   2.89355   2.89652
  Beta virt. eigenvalues --    2.90436   2.92073   2.92982   2.93539   2.94558
  Beta virt. eigenvalues --    2.95069   2.97393   2.98178   2.98604   2.99160
  Beta virt. eigenvalues --    2.99757   3.00312   3.01561   3.02009   3.02818
  Beta virt. eigenvalues --    3.02975   3.04387   3.04445   3.05107   3.05596
  Beta virt. eigenvalues --    3.06830   3.07456   3.08522   3.09507   3.10013
  Beta virt. eigenvalues --    3.10549   3.10857   3.11464   3.12149   3.13446
  Beta virt. eigenvalues --    3.13866   3.14394   3.14694   3.14992   3.16028
  Beta virt. eigenvalues --    3.16158   3.16694   3.17469   3.17943   3.18529
  Beta virt. eigenvalues --    3.19516   3.19790   3.19888   3.20560   3.20802
  Beta virt. eigenvalues --    3.22413   3.23019   3.23366   3.24211   3.25077
  Beta virt. eigenvalues --    3.26747   3.26964   3.27063   3.28286   3.29130
  Beta virt. eigenvalues --    3.29835   3.30466   3.31388   3.33102   3.33398
  Beta virt. eigenvalues --    3.33578   3.33908   3.34946   3.35637   3.36623
  Beta virt. eigenvalues --    3.37081   3.37642   3.38580   3.39460   3.40522
  Beta virt. eigenvalues --    3.40790   3.41774   3.42175   3.42522   3.43491
  Beta virt. eigenvalues --    3.43905   3.44251   3.44552   3.44889   3.45704
  Beta virt. eigenvalues --    3.46055   3.46948   3.47895   3.49114   3.50030
  Beta virt. eigenvalues --    3.50748   3.51668   3.52859   3.53601   3.54543
  Beta virt. eigenvalues --    3.55497   3.55798   3.56831   3.57658   3.58584
  Beta virt. eigenvalues --    3.59384   3.60289   3.60878   3.62446   3.63222
  Beta virt. eigenvalues --    3.64629   3.65405   3.66013   3.68100   3.68705
  Beta virt. eigenvalues --    3.69434   3.69528   3.71006   3.71601   3.72553
  Beta virt. eigenvalues --    3.73179   3.73601   3.74829   3.75291   3.75565
  Beta virt. eigenvalues --    3.76867   3.77269   3.77862   3.78235   3.78903
  Beta virt. eigenvalues --    3.79225   3.80194   3.81676   3.82008   3.82701
  Beta virt. eigenvalues --    3.83467   3.83610   3.85322   3.86462   3.87452
  Beta virt. eigenvalues --    3.87655   3.88738   3.88916   3.90239   3.90861
  Beta virt. eigenvalues --    3.90929   3.92240   3.92487   3.93271   3.93319
  Beta virt. eigenvalues --    3.94699   3.95161   3.95424   3.95895   3.96583
  Beta virt. eigenvalues --    3.98045   3.98365   3.99364   4.00466   4.01124
  Beta virt. eigenvalues --    4.02115   4.03159   4.04047   4.04392   4.05648
  Beta virt. eigenvalues --    4.05963   4.06828   4.08407   4.08838   4.09468
  Beta virt. eigenvalues --    4.09602   4.10387   4.11275   4.11588   4.13570
  Beta virt. eigenvalues --    4.13843   4.15317   4.16130   4.17654   4.18421
  Beta virt. eigenvalues --    4.19528   4.19728   4.20688   4.21835   4.22613
  Beta virt. eigenvalues --    4.23851   4.24032   4.24674   4.25663   4.26473
  Beta virt. eigenvalues --    4.26711   4.27419   4.28440   4.28980   4.29799
  Beta virt. eigenvalues --    4.30752   4.31909   4.32519   4.33374   4.34849
  Beta virt. eigenvalues --    4.35834   4.36570   4.37708   4.38485   4.38743
  Beta virt. eigenvalues --    4.39271   4.40722   4.41133   4.41853   4.42393
  Beta virt. eigenvalues --    4.43508   4.43863   4.44627   4.44891   4.45708
  Beta virt. eigenvalues --    4.47448   4.48816   4.49249   4.51133   4.52907
  Beta virt. eigenvalues --    4.54290   4.54736   4.57331   4.58805   4.60049
  Beta virt. eigenvalues --    4.60840   4.62266   4.65358   4.66396   4.67303
  Beta virt. eigenvalues --    4.68233   4.69719   4.71172   4.72245   4.72867
  Beta virt. eigenvalues --    4.73409   4.76821   4.77233   4.78199   4.78995
  Beta virt. eigenvalues --    4.79913   4.81658   4.82581   4.83309   4.84077
  Beta virt. eigenvalues --    4.86697   4.87160   4.90189   4.90381   4.90616
  Beta virt. eigenvalues --    4.93871   4.95196   4.95684   4.96055   4.99494
  Beta virt. eigenvalues --    5.00952   5.01170   5.02435   5.03956   5.05257
  Beta virt. eigenvalues --    5.08195   5.09702   5.10538   5.12872   5.13959
  Beta virt. eigenvalues --    5.16694   5.17510   5.19079   5.19478   5.20725
  Beta virt. eigenvalues --    5.23298   5.23968   5.24404   5.26748   5.29545
  Beta virt. eigenvalues --    5.31232   5.32024   5.32309   5.33780   5.34497
  Beta virt. eigenvalues --    5.38326   5.38872   5.40669   5.44035   5.45136
  Beta virt. eigenvalues --    5.48149   5.48509   5.51037   5.52239   5.54013
  Beta virt. eigenvalues --    5.56322   5.57701   5.57962   5.58588   5.61379
  Beta virt. eigenvalues --    5.63284   5.63969   5.65354   5.67607   5.70097
  Beta virt. eigenvalues --    5.72643   5.73813   5.75842   5.80664   5.81984
  Beta virt. eigenvalues --    5.84059   5.86857   5.87795   5.91152   5.92257
  Beta virt. eigenvalues --    5.93175   5.94818   5.96144   5.98231   6.02015
  Beta virt. eigenvalues --    6.04309   6.08350   6.10297   6.11314   6.13922
  Beta virt. eigenvalues --    6.18759   6.19826   6.27912   6.34976   6.39402
  Beta virt. eigenvalues --    6.40144   6.42753   6.48193   6.48538   6.49228
  Beta virt. eigenvalues --    6.50797   6.52861   6.53292   6.54374   6.59443
  Beta virt. eigenvalues --    6.60500   6.67639   6.69123   6.69710   6.70098
  Beta virt. eigenvalues --    6.71722   6.76925   6.79409   6.81224   6.81968
  Beta virt. eigenvalues --    6.84770   6.85177   6.85645   6.85819   6.86182
  Beta virt. eigenvalues --    6.87238   6.90566   6.91863   6.94107   6.96094
  Beta virt. eigenvalues --    6.96747   6.98052   7.02138   7.06507   7.09542
  Beta virt. eigenvalues --    7.12857   7.13803   7.14115   7.15671   7.20102
  Beta virt. eigenvalues --    7.26106   7.35758   7.38987   7.42044   7.45082
  Beta virt. eigenvalues --    7.47926   7.52908   7.53481   7.55311   7.57247
  Beta virt. eigenvalues --    7.61416   8.56692   8.63484  11.60901  11.63043
  Beta virt. eigenvalues --   11.96612  12.02995  12.13943  12.36730  12.41546
  Beta virt. eigenvalues --   12.53036  12.57261  12.70818  12.95938  13.03856
  Beta virt. eigenvalues --   13.10939  13.29779  13.46750  13.65166  13.80891
  Beta virt. eigenvalues --   15.42603  15.55578
          Condensed to atoms (all electrons):
               1          2          3          4          5          6
     1  C    5.254119   0.497205  -0.063641  -0.079423  -0.006679   0.362295
     2  C    0.497205   4.831947   0.247016   0.001206  -0.071744  -0.035492
     3  C   -0.063641   0.247016   5.782051   0.265213   0.028236  -0.051594
     4  C   -0.079423   0.001206   0.265213   5.247846   0.098865   0.035955
     5  C   -0.006679  -0.071744   0.028236   0.098865   5.597097   0.323315
     6  C    0.362295  -0.035492  -0.051594   0.035955   0.323315   4.840692
     7  H    0.417909  -0.057592   0.012444  -0.004534   0.013577  -0.044673
     8  H    0.008651  -0.002443   0.015681  -0.049569   0.425076  -0.052485
     9  O   -0.040393   0.003272  -0.000668   0.016146  -0.085107   0.400089
    10  H   -0.002519  -0.000502  -0.000476   0.006957  -0.002393  -0.042082
    11  O   -0.075649   0.425173  -0.098447   0.002391  -0.000036   0.008858
    12  H   -0.001849  -0.050301   0.012694   0.000502  -0.000396   0.003451
    13  O    0.000118   0.006085  -0.086574   0.392080  -0.039995   0.004211
    14  O    0.000002  -0.000805   0.007025   0.001786  -0.000008  -0.000001
    15  H    0.000002  -0.000420  -0.001224   0.001105   0.000032  -0.000002
    16  C   -0.000010  -0.000099   0.001574   0.000068  -0.000923   0.000010
    17  C    0.000007  -0.000039  -0.000632   0.000344   0.000483   0.000019
    18  C    0.000000   0.000009  -0.000705   0.000714   0.000011  -0.000001
    19  C    0.000000  -0.000001  -0.000068   0.000307   0.000002   0.000000
    20  H    0.000005  -0.000029  -0.000719   0.000312   0.000621   0.000007
    21  C   -0.000000   0.000000   0.000012  -0.000042  -0.000004  -0.000000
    22  H    0.000000  -0.000002  -0.000245   0.000314   0.000013  -0.000000
    23  C   -0.000000   0.000000  -0.000001  -0.000007   0.000001   0.000000
    24  H   -0.000000   0.000000   0.000000  -0.000000   0.000000   0.000000
    25  O   -0.000000   0.000000  -0.000000  -0.000002   0.000000   0.000000
    26  H    0.000000  -0.000000   0.000000   0.000000  -0.000000  -0.000000
    27  C   -0.000448   0.002797   0.049756  -0.059360  -0.015320   0.000754
    28  H   -0.000008  -0.001001  -0.014601   0.018145   0.004224  -0.000124
    29  C    0.011596  -0.037498   0.126201  -0.044674   0.021983  -0.006107
    30  H    0.000207  -0.013366  -0.045470   0.006677   0.000581  -0.000129
    31  H    0.000137  -0.012495  -0.020295   0.001127   0.000301  -0.000176
    32  C    0.000543   0.008587  -0.015829  -0.039217   0.000093  -0.000118
    33  H    0.000071  -0.001749  -0.022808   0.015591   0.001220  -0.000117
    34  O    0.000000  -0.000000  -0.000000  -0.000000  -0.000000  -0.000000
               7          8          9         10         11         12
     1  C    0.417909   0.008651  -0.040393  -0.002519  -0.075649  -0.001849
     2  C   -0.057592  -0.002443   0.003272  -0.000502   0.425173  -0.050301
     3  C    0.012444   0.015681  -0.000668  -0.000476  -0.098447   0.012694
     4  C   -0.004534  -0.049569   0.016146   0.006957   0.002391   0.000502
     5  C    0.013577   0.425076  -0.085107  -0.002393  -0.000036  -0.000396
     6  C   -0.044673  -0.052485   0.400089  -0.042082   0.008858   0.003451
     7  H    0.557574  -0.000150   0.005645  -0.000772  -0.004201   0.004480
     8  H   -0.000150   0.549180  -0.005564   0.002126   0.000007  -0.000011
     9  O    0.005645  -0.005564   7.622633   0.353645  -0.000019  -0.000019
    10  H   -0.000772   0.002126   0.353645   0.480856   0.000012   0.000004
    11  O   -0.004201   0.000007  -0.000019   0.000012   7.616452   0.352023
    12  H    0.004480  -0.000011  -0.000019   0.000004   0.352023   0.481534
    13  O    0.000007   0.006151  -0.000030  -0.000024  -0.000025   0.000007
    14  O   -0.000000  -0.000001   0.000000  -0.000000   0.000005   0.000000
    15  H    0.000000   0.000001  -0.000000   0.000000  -0.000001  -0.000000
    16  C   -0.000000  -0.000279  -0.000000   0.000000  -0.000000   0.000000
    17  C    0.000000   0.000207   0.000000  -0.000000   0.000000  -0.000000
    18  C   -0.000000   0.000000   0.000000   0.000000   0.000000  -0.000000
    19  C    0.000000   0.000006   0.000000  -0.000000   0.000000  -0.000000
    20  H   -0.000000   0.000155  -0.000000   0.000000   0.000000  -0.000000
    21  C   -0.000000  -0.000001   0.000000   0.000000   0.000000   0.000000
    22  H   -0.000000   0.000001   0.000000   0.000000   0.000000  -0.000000
    23  C    0.000000   0.000000  -0.000000  -0.000000  -0.000000   0.000000
    24  H   -0.000000   0.000000   0.000000   0.000000   0.000000   0.000000
    25  O   -0.000000  -0.000000  -0.000000   0.000000   0.000000   0.000000
    26  H   -0.000000   0.000000   0.000000  -0.000000   0.000000  -0.000000
    27  C   -0.000007  -0.000200   0.000007   0.000006  -0.000066   0.000014
    28  H   -0.000000   0.000087   0.000000   0.000000  -0.000006   0.000000
    29  C   -0.000140  -0.000179  -0.000009  -0.000012   0.022142  -0.002846
    30  H    0.000015   0.000024  -0.000000  -0.000000   0.003207  -0.000152
    31  H   -0.000019   0.000026  -0.000000  -0.000000   0.009924  -0.000269
    32  C    0.000005   0.000193   0.000001  -0.000000   0.000781  -0.000065
    33  H    0.000000   0.000015   0.000000   0.000000   0.000006  -0.000002
    34  O    0.000000  -0.000000   0.000000  -0.000000   0.000000  -0.000000
              13         14         15         16         17         18
     1  C    0.000118   0.000002   0.000002  -0.000010   0.000007   0.000000
     2  C    0.006085  -0.000805  -0.000420  -0.000099  -0.000039   0.000009
     3  C   -0.086574   0.007025  -0.001224   0.001574  -0.000632  -0.000705
     4  C    0.392080   0.001786   0.001105   0.000068   0.000344   0.000714
     5  C   -0.039995  -0.000008   0.000032  -0.000923   0.000483   0.000011
     6  C    0.004211  -0.000001  -0.000002   0.000010   0.000019  -0.000001
     7  H    0.000007  -0.000000   0.000000  -0.000000   0.000000  -0.000000
     8  H    0.006151  -0.000001   0.000001  -0.000279   0.000207   0.000000
     9  O   -0.000030   0.000000  -0.000000  -0.000000   0.000000   0.000000
    10  H   -0.000024  -0.000000   0.000000   0.000000  -0.000000   0.000000
    11  O   -0.000025   0.000005  -0.000001  -0.000000   0.000000   0.000000
    12  H    0.000007   0.000000  -0.000000   0.000000  -0.000000  -0.000000
    13  O    7.793631   0.002366  -0.000051  -0.077609   0.027455   0.001972
    14  O    0.002366   7.718678   0.341421  -0.034547  -0.000084   0.024710
    15  H   -0.000051   0.341421   0.512813  -0.003341  -0.000214   0.000783
    16  C   -0.077609  -0.034547  -0.003341   5.312779   0.329865   0.283816
    17  C    0.027455  -0.000084  -0.000214   0.329865   5.254615  -0.032163
    18  C    0.001972   0.024710   0.000783   0.283816  -0.032163   5.151028
    19  C    0.003595  -0.000330   0.000034  -0.023976   0.313145  -0.025763
    20  H    0.013402   0.000069  -0.000002  -0.052936   0.401802   0.009029
    21  C   -0.000181  -0.000603   0.000076  -0.008270  -0.030419   0.354863
    22  H    0.000196   0.003615   0.001033  -0.075861   0.006707   0.436164
    23  C    0.000042   0.000141  -0.000012  -0.050100   0.021974   0.011602
    24  H    0.000002  -0.000035  -0.000005   0.010254  -0.003962  -0.049257
    25  O    0.000001  -0.000000   0.000000   0.001633  -0.044253  -0.001168
    26  H    0.000000  -0.000000   0.000000  -0.000438   0.005854  -0.001664
    27  C    0.279289  -0.025952   0.004466   0.345163  -0.041735  -0.036418
    28  H   -0.027405  -0.001285   0.001762  -0.045223   0.011490  -0.007380
    29  C    0.006236  -0.040604  -0.000305  -0.002500   0.001240   0.001013
    30  H    0.000182  -0.004464   0.009474   0.000334  -0.000138   0.000087
    31  H   -0.000538   0.003200  -0.000630  -0.000410   0.000067  -0.000054
    32  C   -0.041560   0.343556  -0.060868  -0.026510  -0.014504   0.004496
    33  H    0.002550  -0.022229   0.007841  -0.001006   0.002111   0.002091
    34  O    0.000000  -0.000000  -0.000000  -0.002680   0.014626   0.010753
              19         20         21         22         23         24
     1  C    0.000000   0.000005  -0.000000   0.000000  -0.000000  -0.000000
     2  C   -0.000001  -0.000029   0.000000  -0.000002   0.000000   0.000000
     3  C   -0.000068  -0.000719   0.000012  -0.000245  -0.000001   0.000000
     4  C    0.000307   0.000312  -0.000042   0.000314  -0.000007  -0.000000
     5  C    0.000002   0.000621  -0.000004   0.000013   0.000001   0.000000
     6  C    0.000000   0.000007  -0.000000  -0.000000   0.000000   0.000000
     7  H    0.000000  -0.000000  -0.000000  -0.000000   0.000000  -0.000000
     8  H    0.000006   0.000155  -0.000001   0.000001   0.000000   0.000000
     9  O    0.000000  -0.000000   0.000000   0.000000  -0.000000   0.000000
    10  H   -0.000000   0.000000   0.000000   0.000000  -0.000000   0.000000
    11  O    0.000000   0.000000   0.000000   0.000000  -0.000000   0.000000
    12  H   -0.000000  -0.000000   0.000000  -0.000000   0.000000   0.000000
    13  O    0.003595   0.013402  -0.000181   0.000196   0.000042   0.000002
    14  O   -0.000330   0.000069  -0.000603   0.003615   0.000141  -0.000035
    15  H    0.000034  -0.000002   0.000076   0.001033  -0.000012  -0.000005
    16  C   -0.023976  -0.052936  -0.008270  -0.075861  -0.050100   0.010254
    17  C    0.313145   0.401802  -0.030419   0.006707   0.021974  -0.003962
    18  C   -0.025763   0.009029   0.354863   0.436164   0.011602  -0.049257
    19  C    5.194260  -0.027583  -0.054200  -0.002306   0.182767   0.014098
    20  H   -0.027583   0.514337  -0.003739  -0.000125   0.009156   0.000059
    21  C   -0.054200  -0.003739   5.288387  -0.030303   0.305273   0.412817
    22  H   -0.002306  -0.000125  -0.030303   0.541644   0.007275  -0.009278
    23  C    0.182767   0.009156   0.305273   0.007275   4.812313  -0.042043
    24  H    0.014098   0.000059   0.412817  -0.009278  -0.042043   0.531875
    25  O    0.413340   0.002938   0.010240   0.000019  -0.072010  -0.000153
    26  H   -0.058881  -0.001050   0.007268   0.000009  -0.014621  -0.000168
    27  C    0.002801  -0.005091   0.002341   0.007357  -0.001031  -0.000080
    28  H    0.000647   0.000956   0.000068   0.004271  -0.000131  -0.000039
    29  C    0.000003   0.000342  -0.000049   0.000294   0.000001  -0.000000
    30  H   -0.000003  -0.000015   0.000001   0.000072   0.000000  -0.000000
    31  H    0.000002   0.000033  -0.000000  -0.000006   0.000000   0.000000
    32  C   -0.001459  -0.002023  -0.000323  -0.001760   0.000085   0.000019
    33  H    0.000787   0.001259  -0.000073   0.000219  -0.000038  -0.000000
    34  O   -0.118677  -0.000148  -0.092211  -0.000152   0.654966   0.005684
              25         26         27         28         29         30
     1  C   -0.000000   0.000000  -0.000448  -0.000008   0.011596   0.000207
     2  C    0.000000  -0.000000   0.002797  -0.001001  -0.037498  -0.013366
     3  C   -0.000000   0.000000   0.049756  -0.014601   0.126201  -0.045470
     4  C   -0.000002   0.000000  -0.059360   0.018145  -0.044674   0.006677
     5  C    0.000000  -0.000000  -0.015320   0.004224   0.021983   0.000581
     6  C    0.000000  -0.000000   0.000754  -0.000124  -0.006107  -0.000129
     7  H   -0.000000  -0.000000  -0.000007  -0.000000  -0.000140   0.000015
     8  H   -0.000000   0.000000  -0.000200   0.000087  -0.000179   0.000024
     9  O   -0.000000   0.000000   0.000007   0.000000  -0.000009  -0.000000
    10  H    0.000000  -0.000000   0.000006   0.000000  -0.000012  -0.000000
    11  O    0.000000   0.000000  -0.000066  -0.000006   0.022142   0.003207
    12  H    0.000000  -0.000000   0.000014   0.000000  -0.002846  -0.000152
    13  O    0.000001   0.000000   0.279289  -0.027405   0.006236   0.000182
    14  O   -0.000000  -0.000000  -0.025952  -0.001285  -0.040604  -0.004464
    15  H    0.000000   0.000000   0.004466   0.001762  -0.000305   0.009474
    16  C    0.001633  -0.000438   0.345163  -0.045223  -0.002500   0.000334
    17  C   -0.044253   0.005854  -0.041735   0.011490   0.001240  -0.000138
    18  C   -0.001168  -0.001664  -0.036418  -0.007380   0.001013   0.000087
    19  C    0.413340  -0.058881   0.002801   0.000647   0.000003  -0.000003
    20  H    0.002938  -0.001050  -0.005091   0.000956   0.000342  -0.000015
    21  C    0.010240   0.007268   0.002341   0.000068  -0.000049   0.000001
    22  H    0.000019   0.000009   0.007357   0.004271   0.000294   0.000072
    23  C   -0.072010  -0.014621  -0.001031  -0.000131   0.000001   0.000000
    24  H   -0.000153  -0.000168  -0.000080  -0.000039  -0.000000  -0.000000
    25  O    7.607431   0.341524  -0.000070   0.000004   0.000000   0.000000
    26  H    0.341524   0.441312   0.000011  -0.000000  -0.000000   0.000000
    27  C   -0.000070   0.000011   4.883886   0.424479  -0.097197  -0.010825
    28  H    0.000004  -0.000000   0.424479   0.560151   0.012938   0.000912
    29  C    0.000000  -0.000000  -0.097197   0.012938   5.081595   0.413006
    30  H    0.000000   0.000000  -0.010825   0.000912   0.413006   0.593027
    31  H    0.000000  -0.000000   0.009024   0.000188   0.411426  -0.032887
    32  C    0.000006  -0.000003   0.282831  -0.061857   0.336207  -0.027431
    33  H   -0.000014   0.000001  -0.057882   0.005573  -0.002895   0.006303
    34  O   -0.012299   0.050319  -0.000020  -0.000000   0.000000   0.000000
              31         32         33         34
     1  C    0.000137   0.000543   0.000071   0.000000
     2  C   -0.012495   0.008587  -0.001749  -0.000000
     3  C   -0.020295  -0.015829  -0.022808  -0.000000
     4  C    0.001127  -0.039217   0.015591  -0.000000
     5  C    0.000301   0.000093   0.001220  -0.000000
     6  C   -0.000176  -0.000118  -0.000117  -0.000000
     7  H   -0.000019   0.000005   0.000000   0.000000
     8  H    0.000026   0.000193   0.000015  -0.000000
     9  O   -0.000000   0.000001   0.000000   0.000000
    10  H   -0.000000  -0.000000   0.000000  -0.000000
    11  O    0.009924   0.000781   0.000006   0.000000
    12  H   -0.000269  -0.000065  -0.000002  -0.000000
    13  O   -0.000538  -0.041560   0.002550   0.000000
    14  O    0.003200   0.343556  -0.022229  -0.000000
    15  H   -0.000630  -0.060868   0.007841  -0.000000
    16  C   -0.000410  -0.026510  -0.001006  -0.002680
    17  C    0.000067  -0.014504   0.002111   0.014626
    18  C   -0.000054   0.004496   0.002091   0.010753
    19  C    0.000002  -0.001459   0.000787  -0.118677
    20  H    0.000033  -0.002023   0.001259  -0.000148
    21  C   -0.000000  -0.000323  -0.000073  -0.092211
    22  H   -0.000006  -0.001760   0.000219  -0.000152
    23  C    0.000000   0.000085  -0.000038   0.654966
    24  H    0.000000   0.000019  -0.000000   0.005684
    25  O    0.000000   0.000006  -0.000014  -0.012299
    26  H   -0.000000  -0.000003   0.000001   0.050319
    27  C    0.009024   0.282831  -0.057882  -0.000020
    28  H    0.000188  -0.061857   0.005573  -0.000000
    29  C    0.411426   0.336207  -0.002895   0.000000
    30  H   -0.032887  -0.027431   0.006303   0.000000
    31  H    0.551636  -0.031086  -0.008257  -0.000000
    32  C   -0.031086   4.883362   0.397301   0.000001
    33  H   -0.008257   0.397301   0.552846   0.000000
    34  O   -0.000000   0.000001   0.000000   7.842839
          Atomic-Atomic Spin Densities.
               1          2          3          4          5          6
     1  C    0.000320  -0.001143   0.000757  -0.000325   0.000641  -0.000433
     2  C   -0.001143   0.002946  -0.001459   0.000783  -0.001287   0.000813
     3  C    0.000757  -0.001459   0.001285  -0.000330   0.000979  -0.000635
     4  C   -0.000325   0.000783  -0.000330  -0.000076  -0.001045   0.000877
     5  C    0.000641  -0.001287   0.000979  -0.001045   0.003369  -0.002471
     6  C   -0.000433   0.000813  -0.000635   0.000877  -0.002471   0.002062
     7  H    0.000025  -0.000051   0.000022  -0.000009   0.000020  -0.000015
     8  H   -0.000006  -0.000002  -0.000020   0.000050   0.000106  -0.000053
     9  O    0.000019  -0.000018   0.000014  -0.000033   0.000136  -0.000171
    10  H    0.000001  -0.000000   0.000000  -0.000000  -0.000003   0.000003
    11  O   -0.000009  -0.000005   0.000001   0.000003  -0.000002   0.000002
    12  H   -0.000018   0.000039  -0.000027   0.000005  -0.000004   0.000003
    13  O   -0.000023   0.000054  -0.000426   0.001067  -0.000336   0.000124
    14  O    0.000000  -0.000002  -0.000094   0.000011   0.000000  -0.000000
    15  H    0.000000  -0.000002  -0.000071   0.000016   0.000000  -0.000000
    16  C   -0.000001   0.000010  -0.000081  -0.000695  -0.000027   0.000010
    17  C    0.000000  -0.000002   0.000003  -0.000013   0.000001  -0.000002
    18  C   -0.000000   0.000001   0.000009  -0.000071  -0.000000   0.000000
    19  C    0.000000  -0.000000  -0.000000   0.000028  -0.000002  -0.000000
    20  H   -0.000000   0.000001   0.000011  -0.000012  -0.000007   0.000000
    21  C    0.000000   0.000000   0.000001   0.000002  -0.000000  -0.000000
    22  H    0.000000  -0.000000  -0.000002   0.000005  -0.000000  -0.000000
    23  C    0.000000   0.000000   0.000000   0.000001  -0.000000  -0.000000
    24  H   -0.000000  -0.000000   0.000000  -0.000000  -0.000000   0.000000
    25  O   -0.000000  -0.000000  -0.000000  -0.000000   0.000000   0.000000
    26  H   -0.000000   0.000000  -0.000000  -0.000000   0.000000   0.000000
    27  C   -0.000015   0.000118  -0.000799   0.000607  -0.000137   0.000050
    28  H    0.000011  -0.000070  -0.000529   0.000722   0.000070  -0.000020
    29  C    0.000172  -0.001400  -0.003095   0.000747   0.000379  -0.000131
    30  H    0.000002   0.000027   0.000056   0.000001   0.000000  -0.000001
    31  H   -0.000030   0.000241   0.000458  -0.000016  -0.000023   0.000009
    32  C   -0.000051   0.000449   0.003708  -0.002222  -0.000214   0.000056
    33  H    0.000002  -0.000012  -0.000107   0.000048   0.000009  -0.000002
    34  O   -0.000000  -0.000000  -0.000000  -0.000000   0.000000   0.000000
               7          8          9         10         11         12
     1  C    0.000025  -0.000006   0.000019   0.000001  -0.000009  -0.000018
     2  C   -0.000051  -0.000002  -0.000018  -0.000000  -0.000005   0.000039
     3  C    0.000022  -0.000020   0.000014   0.000000   0.000001  -0.000027
     4  C   -0.000009   0.000050  -0.000033  -0.000000   0.000003   0.000005
     5  C    0.000020   0.000106   0.000136  -0.000003  -0.000002  -0.000004
     6  C   -0.000015  -0.000053  -0.000171   0.000003   0.000002   0.000003
     7  H    0.000011   0.000000   0.000001   0.000000  -0.000002  -0.000002
     8  H    0.000000  -0.000068   0.000004   0.000001  -0.000000  -0.000000
     9  O    0.000001   0.000004   0.000067  -0.000002  -0.000000  -0.000000
    10  H    0.000000   0.000001  -0.000002  -0.000001  -0.000000   0.000000
    11  O   -0.000002  -0.000000  -0.000000  -0.000000   0.000057  -0.000005
    12  H   -0.000002  -0.000000  -0.000000   0.000000  -0.000005   0.000024
    13  O   -0.000000  -0.000015  -0.000000  -0.000000   0.000000   0.000000
    14  O    0.000000   0.000000   0.000000  -0.000000   0.000000  -0.000000
    15  H    0.000000  -0.000000   0.000000   0.000000   0.000000  -0.000000
    16  C   -0.000000  -0.000019  -0.000000   0.000000   0.000000  -0.000000
    17  C    0.000000  -0.000010   0.000000   0.000000   0.000000  -0.000000
    18  C   -0.000000  -0.000000  -0.000000  -0.000000  -0.000000  -0.000000
    19  C    0.000000   0.000001   0.000000  -0.000000  -0.000000   0.000000
    20  H    0.000000  -0.000001  -0.000000  -0.000000  -0.000000   0.000000
    21  C    0.000000   0.000000   0.000000   0.000000  -0.000000   0.000000
    22  H    0.000000   0.000000   0.000000  -0.000000   0.000000  -0.000000
    23  C    0.000000   0.000000   0.000000   0.000000  -0.000000   0.000000
    24  H   -0.000000  -0.000000  -0.000000  -0.000000  -0.000000  -0.000000
    25  O   -0.000000  -0.000000  -0.000000  -0.000000   0.000000  -0.000000
    26  H    0.000000  -0.000000  -0.000000   0.000000  -0.000000   0.000000
    27  C   -0.000000  -0.000003  -0.000000  -0.000000  -0.000000  -0.000000
    28  H    0.000000   0.000006   0.000000  -0.000000   0.000000  -0.000000
    29  C    0.000001   0.000005   0.000000   0.000000  -0.000005  -0.000003
    30  H    0.000000  -0.000000   0.000000   0.000000   0.000001  -0.000000
    31  H   -0.000000  -0.000000  -0.000000   0.000000  -0.000022   0.000005
    32  C   -0.000000  -0.000004  -0.000000  -0.000000  -0.000004   0.000001
    33  H    0.000000   0.000001  -0.000000  -0.000000  -0.000000  -0.000000
    34  O   -0.000000  -0.000000  -0.000000  -0.000000   0.000000  -0.000000
              13         14         15         16         17         18
     1  C   -0.000023   0.000000   0.000000  -0.000001   0.000000  -0.000000
     2  C    0.000054  -0.000002  -0.000002   0.000010  -0.000002   0.000001
     3  C   -0.000426  -0.000094  -0.000071  -0.000081   0.000003   0.000009
     4  C    0.001067   0.000011   0.000016  -0.000695  -0.000013  -0.000071
     5  C   -0.000336   0.000000   0.000000  -0.000027   0.000001  -0.000000
     6  C    0.000124  -0.000000  -0.000000   0.000010  -0.000002   0.000000
     7  H   -0.000000   0.000000   0.000000  -0.000000   0.000000  -0.000000
     8  H   -0.000015   0.000000  -0.000000  -0.000019  -0.000010  -0.000000
     9  O   -0.000000   0.000000   0.000000  -0.000000   0.000000  -0.000000
    10  H   -0.000000  -0.000000   0.000000   0.000000   0.000000  -0.000000
    11  O    0.000000   0.000000   0.000000   0.000000   0.000000  -0.000000
    12  H    0.000000  -0.000000  -0.000000  -0.000000  -0.000000  -0.000000
    13  O    0.006744   0.000009   0.000013  -0.003205   0.000387  -0.000328
    14  O    0.000009   0.000139   0.000102  -0.000835   0.000011   0.000328
    15  H    0.000013   0.000102   0.000022   0.000176   0.000006   0.000010
[...]
    30  H    0.032535   0.000118   0.016907   0.091305   0.107893   0.092316
    31  H    0.042744   0.000784   0.036246   0.073924  -0.125718   0.103821
    32  C    0.047658   0.014765  -0.027989   0.057656   0.004975   0.007863
    33  H    0.042369   0.000253  -0.017101  -0.048476  -0.140303   0.114354
    34  O   -0.262062   0.300442   0.128384   0.009329  -0.003701  -0.314603
       Tot  -0.000009   1.000001   0.310045   0.052492   0.306680  -0.000009
 Hirshfeld charges and spin densities with hydrogens summed into heavy atoms:
              Q-H        S-H       Q-CM5   
     1  C   -0.059557  -0.000093  -0.044662
     2  C    0.076813  -0.000004   0.091113
     3  C   -0.054600   0.000154  -0.059134
     4  C    0.072758   0.000379   0.092628
     5  C   -0.060981   0.000087  -0.045619
     6  C    0.077061   0.000047   0.089304
     9  O   -0.012261   0.000023  -0.039117
    11  O   -0.002923   0.000061  -0.031620
    13  O   -0.124806   0.003812  -0.203204
    14  O   -0.064226   0.002076  -0.102916
    16  C    0.020811   0.212604   0.011998
    17  C   -0.011030  -0.052549   0.006128
    18  C    0.004527   0.001328   0.009647
    19  C    0.098420   0.197221   0.116944
    21  C    0.016844   0.136205   0.024808
    23  C    0.091595   0.069949   0.120905
    25  O    0.001306   0.093070  -0.010744
    27  C    0.086511   0.017301   0.126643
    29  C    0.015765   0.002870   0.039276
    32  C    0.090026   0.015018   0.122217
    34  O   -0.262062   0.300442  -0.314603
 
 EQQ= 0.845064443369E-01 EQD=-0.275674772752E-01 EDD= 0.103958382845E-01
 EQQ+QD+DD= 0.673348053462E-01
 
                          Isotropic Fermi Contact Couplings
        Atom                 a.u.       MegaHertz       Gauss      10(-4) cm-1
     1  C(13)             -0.00001      -0.00577      -0.00206      -0.00192
     2  C(13)             -0.00004      -0.04071      -0.01453      -0.01358
     3  C(13)              0.00007       0.07833       0.02795       0.02613
     4  C(13)              0.00034       0.38372       0.13692       0.12799
     5  C(13)              0.00028       0.31869       0.11372       0.10630
     6  C(13)              0.00009       0.10536       0.03760       0.03514
     7  H(1)               0.00000       0.00505       0.00180       0.00168
     8  H(1)               0.00000       0.00445       0.00159       0.00148
     9  O(17)              0.00000      -0.00213      -0.00076      -0.00071
    10  H(1)               0.00000       0.00035       0.00013       0.00012
    11  O(17)              0.00013      -0.07752      -0.02766      -0.02586
    12  H(1)               0.00001       0.02504       0.00893       0.00835
    13  O(17)              0.00799      -4.84461      -1.72868      -1.61599
    14  O(17)              0.00378      -2.29212      -0.81788      -0.76457
    15  H(1)               0.00006       0.26183       0.09343       0.08734
    16  C(13)              0.00495       5.56019       1.98401       1.85468
    17  C(13)             -0.01613     -18.13845      -6.47225      -6.05034
    18  C(13)             -0.01316     -14.79572      -5.27948      -4.93532
    19  C(13)             -0.00162      -1.82017      -0.64948      -0.60714
    20  H(1)               0.00168       7.52261       2.68425       2.50927
    21  C(13)             -0.00161      -1.81412      -0.64732      -0.60512
    22  H(1)               0.00058       2.58359       0.92189       0.86179
    23  C(13)             -0.02445     -27.48537      -9.80746      -9.16813
    24  H(1)              -0.00286     -12.79933      -4.56712      -4.26940
    25  O(17)              0.01150      -6.96830      -2.48646      -2.32437
    26  H(1)              -0.00137      -6.12207      -2.18451      -2.04210
    27  C(13)             -0.01012     -11.37382      -4.05846      -3.79390
    28  H(1)               0.00250      11.19268       3.99383       3.73348
    29  C(13)              0.00026       0.29400       0.10491       0.09807
    30  H(1)              -0.00003      -0.11626      -0.04148      -0.03878
    31  H(1)               0.00041       1.85109       0.66051       0.61746
    32  C(13)              0.01323      14.87375       5.30732       4.96135
    33  H(1)              -0.00030      -1.36104      -0.48565      -0.45399
    34  O(17)              0.02164     -13.11558      -4.67996      -4.37489
 --------------------------------------------------------
       Center         ----  Spin Dipole Couplings  ----
                      3XX-RR        3YY-RR        3ZZ-RR
 --------------------------------------------------------
     1   Atom        0.000635     -0.000204     -0.000432
     2   Atom        0.000753     -0.000387     -0.000366
     3   Atom        0.001732     -0.000661     -0.001071
     4   Atom        0.002381     -0.001079     -0.001301
     5   Atom        0.001152     -0.000236     -0.000916
     6   Atom        0.000663     -0.000317     -0.000346
     7   Atom        0.000373     -0.000177     -0.000196
     8   Atom        0.000761     -0.000100     -0.000661
     9   Atom        0.000432     -0.000178     -0.000254
    10   Atom        0.000335     -0.000091     -0.000245
    11   Atom        0.000555     -0.000232     -0.000322
    12   Atom        0.000394     -0.000188     -0.000206
    13   Atom        0.006663      0.003896     -0.010559
    14   Atom        0.001472      0.001461     -0.002933
    15   Atom       -0.000243      0.001910     -0.001667
    16   Atom       -0.179785      0.075666      0.104119
    17   Atom        0.075425     -0.034515     -0.040910
    18   Atom        0.029319     -0.015752     -0.013566
    19   Atom       -0.173752      0.078009      0.095743
    20   Atom        0.005648     -0.002312     -0.003336
    21   Atom       -0.105041      0.048739      0.056302
    22   Atom       -0.000383      0.000666     -0.000283
    23   Atom        0.011224     -0.004733     -0.006491
    24   Atom       -0.005427      0.002029      0.003398
    25   Atom       -0.220806      0.101652      0.119154
    26   Atom        0.015075     -0.007586     -0.007489
    27   Atom        0.004743     -0.005352      0.000610
    28   Atom        0.004182     -0.002385     -0.001797
    29   Atom        0.003294     -0.000655     -0.002639
    30   Atom        0.000977     -0.000286     -0.000692
    31   Atom        0.000759     -0.000517     -0.000242
    32   Atom       -0.005937      0.005142      0.000795
    33   Atom        0.000348     -0.002725      0.002377
    34   Atom       -0.696668      0.318601      0.378068
 --------------------------------------------------------
                        XY            XZ            YZ
 --------------------------------------------------------
     1   Atom       -0.000068     -0.000066     -0.000034
     2   Atom        0.000075     -0.000072     -0.000007
     3   Atom       -0.000127     -0.000101     -0.000299
     4   Atom       -0.001058     -0.000488      0.000022
     5   Atom       -0.000778      0.000059     -0.000131
     6   Atom       -0.000218      0.000014      0.000018
     7   Atom       -0.000035     -0.000028     -0.000001
     8   Atom       -0.000752      0.000057     -0.000031
     9   Atom       -0.000264      0.000047     -0.000018
    10   Atom       -0.000267      0.000024     -0.000011
    11   Atom        0.000103     -0.000060     -0.000021
    12   Atom        0.000117     -0.000061     -0.000014
    13   Atom       -0.014127     -0.000560     -0.001678
    14   Atom        0.005110     -0.000136     -0.000730
    15   Atom        0.001784     -0.000107      0.000088
    16   Atom       -0.036187      0.040222     -0.287228
    17   Atom        0.014094     -0.007493      0.107600
    18   Atom        0.001120     -0.003385      0.037125
    19   Atom       -0.023548      0.020306     -0.256249
    20   Atom        0.004184      0.003273      0.003262
    21   Atom       -0.016556      0.014319     -0.148649
    22   Atom       -0.001636     -0.002373      0.004990
    23   Atom        0.006853      0.005149     -0.014514
    24   Atom       -0.009425     -0.008981      0.006613
    25   Atom       -0.031933      0.026548     -0.342798
    26   Atom       -0.001091     -0.003432      0.003457
    27   Atom       -0.000257     -0.004051     -0.000161
    28   Atom        0.003029      0.004433      0.001055
    29   Atom        0.003234     -0.000297     -0.000205
    30   Atom        0.001275      0.000141      0.000223
    31   Atom        0.000865     -0.000495     -0.000429
    32   Atom        0.012291     -0.010727     -0.018856
    33   Atom        0.001501     -0.002612     -0.000707
    34   Atom       -0.098691      0.098716     -1.042098
 --------------------------------------------------------


 ---------------------------------------------------------------------------------
              Anisotropic Spin Dipole Couplings in Principal Axis System
 ---------------------------------------------------------------------------------

       Atom             a.u.   MegaHertz   Gauss  10(-4) cm-1        Axes

              Baa    -0.0004    -0.059    -0.021    -0.020  0.0702  0.1596  0.9847
     1 C(13)  Bbb    -0.0002    -0.027    -0.010    -0.009  0.0672  0.9841 -0.1643
              Bcc     0.0006     0.087     0.031     0.029  0.9953 -0.0777 -0.0583
 
              Baa    -0.0004    -0.053    -0.019    -0.018 -0.0585  0.9930  0.1023
     2 C(13)  Bbb    -0.0004    -0.050    -0.018    -0.017  0.0705 -0.0981  0.9927
              Bcc     0.0008     0.102     0.037     0.034  0.9958  0.0653 -0.0643
 
              Baa    -0.0012    -0.166    -0.059    -0.055  0.0502  0.4696  0.8814
     3 C(13)  Bbb    -0.0005    -0.068    -0.024    -0.023  0.0286  0.8815 -0.4713
              Bcc     0.0017     0.234     0.083     0.078  0.9983 -0.0489 -0.0308
 
              Baa    -0.0015    -0.198    -0.071    -0.066  0.2738  0.6893  0.6707
     4 C(13)  Bbb    -0.0013    -0.169    -0.060    -0.056 -0.0976 -0.6738  0.7324
              Bcc     0.0027     0.367     0.131     0.122  0.9568 -0.2660 -0.1172
 
              Baa    -0.0009    -0.127    -0.045    -0.042  0.0650  0.2488  0.9664
     5 C(13)  Bbb    -0.0006    -0.075    -0.027    -0.025  0.4076  0.8773 -0.2533
              Bcc     0.0015     0.202     0.072     0.067  0.9108 -0.4104  0.0444
 
              Baa    -0.0004    -0.051    -0.018    -0.017  0.1789  0.8168 -0.5485
     6 C(13)  Bbb    -0.0003    -0.045    -0.016    -0.015  0.1061  0.5382  0.8361
              Bcc     0.0007     0.095     0.034     0.032  0.9781 -0.2078  0.0096
 
              Baa    -0.0002    -0.105    -0.038    -0.035  0.0575  0.1366  0.9890
     7 H(1)   Bbb    -0.0002    -0.096    -0.034    -0.032  0.0546  0.9887 -0.1398
              Bcc     0.0004     0.201     0.072     0.067  0.9969 -0.0620 -0.0494
 
              Baa    -0.0007    -0.354    -0.126    -0.118 -0.0373  0.0049  0.9993
     8 H(1)   Bbb    -0.0005    -0.286    -0.102    -0.095  0.5011  0.8653  0.0145
              Bcc     0.0012     0.640     0.228     0.213  0.8646 -0.5012  0.0348
 
              Baa    -0.0003     0.020     0.007     0.007  0.3494  0.9369  0.0071
     9 O(17)  Bbb    -0.0003     0.019     0.007     0.006 -0.0618  0.0155  0.9980
              Bcc     0.0005    -0.039    -0.014    -0.013  0.9349 -0.3491  0.0633
 
              Baa    -0.0002    -0.131    -0.047    -0.044 -0.0465 -0.0116  0.9988
    10 H(1)   Bbb    -0.0002    -0.117    -0.042    -0.039  0.4323  0.9012  0.0306
              Bcc     0.0005     0.248     0.088     0.083  0.9005 -0.4332  0.0369
 
              Baa    -0.0003     0.024     0.008     0.008  0.0469  0.1693  0.9845
    11 O(17)  Bbb    -0.0002     0.018     0.006     0.006 -0.1376  0.9772 -0.1615
              Bcc     0.0006    -0.041    -0.015    -0.014  0.9894  0.1279 -0.0691
 
              Baa    -0.0002    -0.114    -0.041    -0.038 -0.0327  0.5906  0.8063
    12 H(1)   Bbb    -0.0002    -0.112    -0.040    -0.037 -0.2109  0.7845 -0.5832
              Bcc     0.0004     0.226     0.081     0.075  0.9770  0.1891 -0.0990
 
              Baa    -0.0116     0.837     0.299     0.279  0.3357  0.3994  0.8531
    13 O(17)  Bbb    -0.0079     0.573     0.205     0.191  0.5833  0.6230 -0.5212
              Bcc     0.0195    -1.410    -0.503    -0.470  0.7396 -0.6726  0.0238
 
              Baa    -0.0038     0.278     0.099     0.093 -0.6190  0.6556  0.4325
    14 O(17)  Bbb    -0.0028     0.200     0.072     0.067  0.3479 -0.2648  0.8994
              Bcc     0.0066    -0.479    -0.171    -0.160  0.7042  0.7071 -0.0641
 
              Baa    -0.0017    -0.911    -0.325    -0.304  0.2470 -0.1451  0.9581
    15 H(1)   Bbb    -0.0012    -0.645    -0.230    -0.215  0.8351 -0.4696 -0.2864
              Bcc     0.0029     1.557     0.555     0.519  0.4915  0.8709  0.0052
 
              Baa    -0.1979   -26.551    -9.474    -8.857 -0.1159  0.7120  0.6926
    16 C(13)  Bbb    -0.1848   -24.800    -8.849    -8.272  0.9886  0.1498  0.0113
              Bcc     0.3827    51.351    18.323    17.129  0.0957 -0.6860  0.7212
 
              Baa    -0.1464   -19.646    -7.010    -6.553  0.0684 -0.6960  0.7148
    17 C(13)  Bbb     0.0673     9.035     3.224     3.014 -0.4700  0.6095  0.6384
              Bcc     0.0791    10.611     3.786     3.539  0.8800  0.3796  0.2855
 
              Baa    -0.0519    -6.968    -2.486    -2.324 -0.0389  0.7163 -0.6967
    18 C(13)  Bbb     0.0221     2.967     1.059     0.990  0.2191  0.6864  0.6934
              Bcc     0.0298     4.000     1.427     1.334  0.9749 -0.1257 -0.1836
 
              Baa    -0.1767   -23.713    -8.461    -7.910  0.9290  0.3015  0.2144
    19 C(13)  Bbb    -0.1684   -22.600    -8.064    -7.539 -0.3652  0.6540  0.6625
              Bcc     0.3451    46.313    16.526    15.448  0.0596 -0.6938  0.7177
 
              Baa    -0.0061    -3.272    -1.168    -1.092  0.0308 -0.6682  0.7433
    20 H(1)   Bbb    -0.0028    -1.513    -0.540    -0.505 -0.5293  0.6200  0.5792
              Bcc     0.0090     4.785     1.708     1.596  0.8479  0.4112  0.3346
 
              Baa    -0.1069   -14.346    -5.119    -4.785  0.9829  0.1705  0.0691
    21 C(13)  Bbb    -0.0959   -12.863    -4.590    -4.291 -0.1699  0.6969  0.6968
              Bcc     0.2028    27.209     9.709     9.076  0.0707 -0.6966  0.7139
 
              Baa    -0.0049    -2.633    -0.940    -0.878  0.1708 -0.6272  0.7599
    22 H(1)   Bbb    -0.0014    -0.769    -0.275    -0.257  0.9069  0.4016  0.1277
              Bcc     0.0064     3.402     1.214     1.135 -0.3853  0.6673  0.6374
 
              Baa    -0.0223    -2.991    -1.067    -0.998 -0.2449  0.6728  0.6981
    23 C(13)  Bbb     0.0085     1.143     0.408     0.381  0.2699 -0.6443  0.7156
              Bcc     0.0138     1.848     0.659     0.616  0.9312  0.3636 -0.0238
 
              Baa    -0.0131    -6.964    -2.485    -2.323  0.8616  0.4033  0.3082
    24 H(1)   Bbb    -0.0039    -2.063    -0.736    -0.688  0.0686 -0.6941  0.7166
              Bcc     0.0169     9.027     3.221     3.011 -0.5030  0.5963  0.6257
 
              Baa    -0.2342    16.948     6.048     5.653  0.3684  0.6810  0.6329
    25 O(17)  Bbb    -0.2216    16.035     5.722     5.349  0.9277 -0.2246 -0.2983
              Bcc     0.4558   -32.984   -11.769   -11.002  0.0609 -0.6970  0.7145
 
              Baa    -0.0111    -5.924    -2.114    -1.976  0.0659 -0.6890  0.7217
    26 H(1)   Bbb    -0.0046    -2.451    -0.874    -0.817  0.1577  0.7214  0.6743
              Bcc     0.0157     8.374     2.988     2.793  0.9853 -0.0694 -0.1562
 
              Baa    -0.0054    -0.721    -0.257    -0.241  0.0495  0.9970  0.0603
    27 C(13)  Bbb    -0.0019    -0.248    -0.089    -0.083  0.5197 -0.0772  0.8508
              Bcc     0.0072     0.970     0.346     0.323  0.8529 -0.0108 -0.5220
 
              Baa    -0.0044    -2.336    -0.834    -0.779 -0.5298  0.4129  0.7409
    28 H(1)   Bbb    -0.0032    -1.693    -0.604    -0.565 -0.0456  0.8584 -0.5110
              Bcc     0.0076     4.030     1.438     1.344  0.8469  0.3045  0.4359
 
              Baa    -0.0027    -0.357    -0.127    -0.119 -0.0451  0.1734  0.9838
    29 C(13)  Bbb    -0.0025    -0.331    -0.118    -0.110 -0.4891  0.8549 -0.1731
              Bcc     0.0051     0.688     0.245     0.229  0.8711  0.4890 -0.0462
 
              Baa    -0.0011    -0.592    -0.211    -0.198 -0.4869  0.8280 -0.2780
    30 H(1)   Bbb    -0.0007    -0.363    -0.130    -0.121 -0.2259  0.1881  0.9558
              Bcc     0.0018     0.956     0.341     0.319  0.8438  0.5282  0.0954
 
              Baa    -0.0010    -0.533    -0.190    -0.178 -0.3637  0.8920  0.2683
    31 H(1)   Bbb    -0.0004    -0.234    -0.084    -0.078  0.4358 -0.0916  0.8953
              Bcc     0.0014     0.767     0.274     0.256  0.8233  0.4426 -0.3555
 
              Baa    -0.0160    -2.150    -0.767    -0.717 -0.0554  0.6819  0.7293
    32 C(13)  Bbb    -0.0134    -1.804    -0.644    -0.602  0.9065 -0.2718  0.3230
              Bcc     0.0295     3.954     1.411     1.319  0.4185  0.6790 -0.6032
 
              Baa    -0.0034    -1.794    -0.640    -0.599 -0.4222  0.9029 -0.0810
    33 H(1)   Bbb    -0.0011    -0.582    -0.208    -0.194  0.6994  0.3813  0.6045
              Bcc     0.0045     2.377     0.848     0.793 -0.5767 -0.1986  0.7925
 
              Baa    -0.7063    51.106    18.236    17.047  0.9848  0.1609  0.0650
    34 O(17)  Bbb    -0.6939    50.208    17.915    16.748 -0.1603  0.7003  0.6956
              Bcc     1.4001  -101.314   -36.151   -33.795  0.0664 -0.6955  0.7155
 

 ---------------------------------------------------------------------------------

 1\1\GINC-COMPUTE-0-11\SP\UwB97XD\CC-pVTZ\C15H13O6(2)\OSVALDO\02-May-20
 19\0\\# wB97XD/cc-PVTZ Pop=Hirshfeld\\cat-ra4PH-sd\\0,2\C,0,1.70299089
 89,-0.2280296145,-0.4137931098\C,0,2.9739534095,-0.3311895819,0.124443
 5155\C,0,3.8435735546,0.7601275237,0.1841683756\C,0,3.3742007269,1.973
 6469835,-0.2998056685\C,0,2.1029085484,2.1102751826,-0.848927913\C,0,1
 .2768575946,1.0011770388,-0.9048611036\H,0,1.0354372059,-1.0797436336,
 -0.4603966462\H,0,1.7873438064,3.0796855451,-1.2141837962\O,0,0.024204
 8605,1.0531370311,-1.425106286\H,0,-0.1598995406,1.9419489499,-1.73429
 48122\O,0,3.4514675946,-1.5043060104,0.6182649259\H,0,2.7961329935,-2.
 194319255,0.5012712635\O,0,4.138153043,3.0997162604,-0.2919238846\O,0,
 7.3132162705,1.8446585811,1.0540823877\H,0,7.1418833539,1.6130174769,1
 .9695461811\C,0,6.0853720662,4.335015202,0.2329253202\C,0,6.1671158168
 ,4.7941499513,-1.0724197534\C,0,6.8045650539,4.9776993182,1.2730503902
 \C,0,6.9645354377,5.8863746975,-1.3509956336\H,0,5.6084249719,4.316353
 4879,-1.8656380385\C,0,7.5984022415,6.0547606742,1.0281190189\H,0,6.71
 35486703,4.5936976265,2.2819329696\C,0,7.7251605612,6.5710001088,-0.30
 69453837\H,0,8.1507374862,6.552683419,1.8142055364\O,0,7.0870876381,6.
 3783137685,-2.5759760194\H,0,7.7001679813,7.1316253028,-2.4882941751\C
 ,0,5.282545354,3.1061463762,0.549637653\H,0,4.9559512729,3.1447000302,
 1.5986343232\C,0,5.2407720312,0.6160813399,0.7184197356\H,0,5.21523745
 94,0.5247034493,1.8127252641\H,0,5.7005638814,-0.2994436064,0.34466148
 53\C,0,6.0977621409,1.8137611491,0.3432039068\H,0,6.3668678635,1.76958
 86745,-0.7148877765\O,0,8.4202231409,7.5486487428,-0.6378385824\\Versi
 on=EM64L-G16RevB.01\State=2-A\HF=-1030.7670964\S2=0.783229\S2-1=0.\S2A
 =0.750737\RMSD=7.356e-09\Dipole=-1.1825562,-1.2523657,0.7055959\Quadru
 pole=-4.2373495,-1.9256706,6.1630201,-5.8397996,4.242059,-1.3529835\PG
 =C01 [X(C15H13O6)]\\@


 THOSE WHO ARE UNABLE TO LEARN FROM PAST MEETINGS
 ARE CONDEMNED TO REPEAT THEM.
 Job cpu time:       0 days  7 hours  4 minutes 33.7 seconds.
 Elapsed time:       0 days  0 hours 53 minutes 10.8 seconds.
 File lengths (MBytes):  RWF=    626 Int=      0 D2E=      0 Chk=     47 Scr=      1
 Normal termination of Gaussian 16 at Thu May  2 02:59:00 2019.
 